 vasp.5.4.1 05Feb16 (build Nov 09 2016 14:59:05) complex                        
  
 executed on           IFC91_ompi date 2019.04.09  20:53:16
 running on   24 total cores
 distrk:  each k-point on   24 cores,    1 groups
 distr:  one band on NCORES_PER_BAND=   4 cores,    6 groups


--------------------------------------------------------------------------------------------------------


 INCAR:
 POTCAR:    PAW_PBE Cl 06Sep2000                  
 POTCAR:    PAW_PBE Li 17Jan2003                  
 POTCAR:    PAW_PBE P 06Sep2000                   
 POTCAR:    PAW_PBE S 06Sep2000                   
 POTCAR:    PAW_PBE Cl 06Sep2000                  
   VRHFIN =Cl: s2p5                                                             
   LEXCH  = PE                                                                  
   EATOM  =   409.7259 eV,   30.1140 Ry                                         
                                                                                
   TITEL  = PAW_PBE Cl 06Sep2000                                                
   LULTRA =        F    use ultrasoft PP ?                                      
   IUNSCR =        1    unscreen: 0-lin 1-nonlin 2-no                           
   RPACOR =    1.500    partial core radius                                     
   POMASS =   35.453; ZVAL   =    7.000    mass and valenz                      
   RCORE  =    1.900    outmost cutoff radius                                   
   RWIGS  =    2.100; RWIGS  =    1.111    wigner-seitz radius (au A)           
   ENMAX  =  262.472; ENMIN  =  196.854 eV                                      
   ICORE  =        2    local potential                                         
   LCOR   =        T    correct aug charges                                     
   LPAW   =        T    paw PP                                                  
   EAUG   =  356.192                                                            
   DEXC   =    0.000                                                            
   RMAX   =    1.945    core radius for proj-oper                               
   RAUG   =    1.300    factor for augmentation sphere                          
   RDEP   =    2.020    radius for radial grids                                 
   RDEPT  =    1.678    core radius for aug-charge                              
                                                                                
   Atomic configuration                                                         
    6 entries                                                                   
     n  l   j            E        occ.                                          
     1  0  0.50     -2751.1850   2.0000                                         
     2  0  0.50      -252.6861   2.0000                                         
     2  1  1.50      -191.6157   6.0000                                         
     3  0  0.50       -20.6916   2.0000                                         
     3  1  0.50        -8.5949   5.0000                                         
     3  2  1.50        -8.1635   0.0000                                         
   Description                                                                  
     l       E           TYP  RCUT    TYP  RCUT                                 
     0    -20.6915656     23  1.900                                             
     0    -22.0521482     23  1.900                                             
     1     -8.5948577     23  1.900                                             
     1     -5.3847331     23  1.900                                             
     2     -8.1634956     23  1.900                                             
  local pseudopotential read in
  partial core-charges read in
  partial kinetic energy density read in
  atomic valenz-charges read in
  non local Contribution for L=           0  read in
    real space projection operators read in
  non local Contribution for L=           0  read in
    real space projection operators read in
  non local Contribution for L=           1  read in
    real space projection operators read in
  non local Contribution for L=           1  read in
    real space projection operators read in
    PAW grid and wavefunctions read in
 
   number of l-projection  operators is LMAX  =           4
   number of lm-projection operators is LMMAX =           8
 
 POTCAR:    PAW_PBE Li 17Jan2003                  
   VRHFIN =Li: s1p0                                                             
   LEXCH  = PE                                                                  
   EATOM  =     5.3001 eV,    0.3895 Ry                                         
                                                                                
   TITEL  = PAW_PBE Li 17Jan2003                                                
   LULTRA =        F    use ultrasoft PP ?                                      
   IUNSCR =        1    unscreen: 0-lin 1-nonlin 2-no                           
   RPACOR =    1.500    partial core radius                                     
   POMASS =    7.010; ZVAL   =    1.000    mass and valenz                      
   RCORE  =    2.050    outmost cutoff radius                                   
   RWIGS  =    2.600; RWIGS  =    1.376    wigner-seitz radius (au A)           
   ENMAX  =  140.000; ENMIN  =  100.000 eV                                      
   ICORE  =        2    local potential                                         
   LCOR   =        T    correct aug charges                                     
   LPAW   =        T    paw PP                                                  
   EAUG   =  331.638                                                            
   DEXC   =    0.000                                                            
   RMAX   =    2.098    core radius for proj-oper                               
   RAUG   =    1.300    factor for augmentation sphere                          
   RDEP   =    2.094    radius for radial grids                                 
   RDEPT  =    1.810    core radius for aug-charge                              
                                                                                
   Atomic configuration                                                         
    4 entries                                                                   
     n  l   j            E        occ.                                          
     1  0  0.50       -51.8549   2.0000                                         
     2  0  0.50        -2.8742   1.0000                                         
     2  1  0.50        -1.3606   0.0000                                         
     3  2  1.50        -1.3606   0.0000                                         
   Description                                                                  
     l       E           TYP  RCUT    TYP  RCUT                                 
     0     -2.8742052     23  2.050                                             
     0     27.2116520     23  2.050                                             
     1     -1.3605826     23  2.050                                             
     2     -1.3605826     23  2.050                                             
  local pseudopotential read in
  partial core-charges read in
  partial kinetic energy density read in
  atomic valenz-charges read in
  non local Contribution for L=           0  read in
    real space projection operators read in
  non local Contribution for L=           0  read in
    real space projection operators read in
  non local Contribution for L=           1  read in
    real space projection operators read in
    PAW grid and wavefunctions read in
 
   number of l-projection  operators is LMAX  =           3
   number of lm-projection operators is LMMAX =           5
 
 POTCAR:    PAW_PBE P 06Sep2000                   
   VRHFIN =P : s2p3                                                             
   LEXCH  = PE                                                                  
   EATOM  =   176.0430 eV,   12.9388 Ry                                         
                                                                                
   TITEL  = PAW_PBE P 06Sep2000                                                 
   LULTRA =        F    use ultrasoft PP ?                                      
   IUNSCR =        1    unscreen: 0-lin 1-nonlin 2-no                           
   RPACOR =    1.500    partial core radius                                     
   POMASS =   30.974; ZVAL   =    5.000    mass and valenz                      
   RCORE  =    1.900    outmost cutoff radius                                   
   RWIGS  =    2.330; RWIGS  =    1.233    wigner-seitz radius (au A)           
   ENMAX  =  255.040; ENMIN  =  191.280 eV                                      
   ICORE  =        2    local potential                                         
   LCOR   =        T    correct aug charges                                     
   LPAW   =        T    paw PP                                                  
   EAUG   =  342.924                                                            
   DEXC   =    0.000                                                            
   RMAX   =    1.935    core radius for proj-oper                               
   RAUG   =    1.300    factor for augmentation sphere                          
   RDEP   =    1.931    radius for radial grids                                 
   RDEPT  =    1.794    core radius for aug-charge                              
                                                                                
   Atomic configuration                                                         
    6 entries                                                                   
     n  l   j            E        occ.                                          
     1  0  0.50     -2084.0982   2.0000                                         
     2  0  0.50      -173.9859   2.0000                                         
     2  1  1.50      -124.4865   6.0000                                         
     3  0  0.50       -13.9692   2.0000                                         
     3  1  0.50        -5.5067   3.0000                                         
     3  2  1.50        -5.4423   0.0000                                         
   Description                                                                  
     l       E           TYP  RCUT    TYP  RCUT                                 
     0    -13.9691527     23  1.900                                             
     0    -11.7794650     23  1.900                                             
     1     -5.5066937     23  1.900                                             
     1     -0.2556953     23  1.900                                             
     2     -5.4423304     23  1.900                                             
  local pseudopotential read in
  partial core-charges read in
  partial kinetic energy density read in
  atomic valenz-charges read in
  non local Contribution for L=           0  read in
    real space projection operators read in
  non local Contribution for L=           0  read in
    real space projection operators read in
  non local Contribution for L=           1  read in
    real space projection operators read in
  non local Contribution for L=           1  read in
    real space projection operators read in
    PAW grid and wavefunctions read in
 
   number of l-projection  operators is LMAX  =           4
   number of lm-projection operators is LMMAX =           8
 
 POTCAR:    PAW_PBE S 06Sep2000                   
   VRHFIN =S : s2p4                                                             
   LEXCH  = PE                                                                  
   EATOM  =   276.8230 eV,   20.3459 Ry                                         
                                                                                
   TITEL  = PAW_PBE S 06Sep2000                                                 
   LULTRA =        F    use ultrasoft PP ?                                      
   IUNSCR =        1    unscreen: 0-lin 1-nonlin 2-no                           
   RPACOR =    1.500    partial core radius                                     
   POMASS =   32.066; ZVAL   =    6.000    mass and valenz                      
   RCORE  =    1.900    outmost cutoff radius                                   
   RWIGS  =    2.200; RWIGS  =    1.164    wigner-seitz radius (au A)           
   ENMAX  =  258.689; ENMIN  =  194.016 eV                                      
   ICORE  =        2    local potential                                         
   LCOR   =        T    correct aug charges                                     
   LPAW   =        T    paw PP                                                  
   EAUG   =  335.092                                                            
   DEXC   =    0.000                                                            
   RMAX   =    1.942    core radius for proj-oper                               
   RAUG   =    1.300    factor for augmentation sphere                          
   RDEP   =    1.954    radius for radial grids                                 
   RDEPT  =    1.744    core radius for aug-charge                              
                                                                                
   Atomic configuration                                                         
    6 entries                                                                   
     n  l   j            E        occ.                                          
     1  0  0.50     -2405.8406   2.0000                                         
     2  0  0.50      -211.7007   2.0000                                         
     2  1  1.50      -156.4958   6.0000                                         
     3  0  0.50       -17.2562   2.0000                                         
     3  1  0.50        -7.0085   4.0000                                         
     3  2  1.50        -6.8029   0.0000                                         
   Description                                                                  
     l       E           TYP  RCUT    TYP  RCUT                                 
     0    -17.2561641     23  1.900                                             
     0    -15.8743224     23  1.900                                             
     1     -7.0085400     23  1.900                                             
     1     -2.7779785     23  1.900                                             
     2     -6.8029130     23  1.900                                             
  local pseudopotential read in
  partial core-charges read in
  partial kinetic energy density read in
  atomic valenz-charges read in
  non local Contribution for L=           0  read in
    real space projection operators read in
  non local Contribution for L=           0  read in
    real space projection operators read in
  non local Contribution for L=           1  read in
    real space projection operators read in
  non local Contribution for L=           1  read in
    real space projection operators read in
    PAW grid and wavefunctions read in
 
   number of l-projection  operators is LMAX  =           4
   number of lm-projection operators is LMMAX =           8
 
 Optimization of the real space projectors (new method)

 maximal supplied QI-value         = 19.84
 optimisation between [QCUT,QGAM] = [ 11.31, 22.82] = [ 35.82,145.81] Ry 
 Optimized for a Real-space Cutoff    1.16 Angstroem

   l    n(q)    QCUT    max X(q) W(low)/X(q) W(high)/X(q)  e(spline) 
   0      8    11.310   168.010    0.31E-03    0.34E-03    0.40E-07
   0      8    11.310   164.674    0.31E-03    0.33E-03    0.39E-07
   1      7    11.310    69.222    0.33E-03    0.38E-03    0.90E-07
   1      7    11.310    56.786    0.32E-03    0.37E-03    0.88E-07
 Optimization of the real space projectors (new method)

 maximal supplied QI-value         = 18.33
 optimisation between [QCUT,QGAM] = [ 11.36, 22.73] = [ 36.17,144.67] Ry 
 Optimized for a Real-space Cutoff    1.13 Angstroem

   l    n(q)    QCUT    max X(q) W(low)/X(q) W(high)/X(q)  e(spline) 
   0      8    11.365    33.825    0.26E-03    0.24E-03    0.87E-07
   0      8    11.365     8.944    0.20E-03    0.17E-03    0.62E-07
   1      7    11.365     4.214    0.29E-03    0.35E-03    0.48E-07
 Optimization of the real space projectors (new method)

 maximal supplied QI-value         = 19.84
 optimisation between [QCUT,QGAM] = [ 11.31, 22.82] = [ 35.82,145.81] Ry 
 Optimized for a Real-space Cutoff    1.16 Angstroem

   l    n(q)    QCUT    max X(q) W(low)/X(q) W(high)/X(q)  e(spline) 
   0      8    11.310   160.924    0.33E-03    0.34E-03    0.44E-07
   0      8    11.310   130.086    0.32E-03    0.34E-03    0.44E-07
   1      7    11.310    74.434    0.30E-03    0.36E-03    0.84E-07
   1      7    11.310    49.120    0.29E-03    0.35E-03    0.82E-07
 Optimization of the real space projectors (new method)

 maximal supplied QI-value         = 19.84
 optimisation between [QCUT,QGAM] = [ 11.31, 22.82] = [ 35.82,145.81] Ry 
 Optimized for a Real-space Cutoff    1.16 Angstroem

   l    n(q)    QCUT    max X(q) W(low)/X(q) W(high)/X(q)  e(spline) 
   0      8    11.310   187.594    0.35E-03    0.37E-03    0.44E-07
   0      8    11.310   164.243    0.34E-03    0.37E-03    0.44E-07
   1      7    11.310    67.533    0.33E-03    0.37E-03    0.88E-07
   1      7    11.310    50.729    0.32E-03    0.36E-03    0.86E-07
  PAW_PBE Cl 06Sep2000                  :
 energy of atom  1       EATOM= -409.7259
 kinetic energy error for atom=    0.0030 (will be added to EATOM!!)
  PAW_PBE Li 17Jan2003                  :
 energy of atom  2       EATOM=   -5.3001
 kinetic energy error for atom=    0.0000 (will be added to EATOM!!)
  PAW_PBE P 06Sep2000                   :
 energy of atom  3       EATOM= -176.0430
 kinetic energy error for atom=    0.0013 (will be added to EATOM!!)
  PAW_PBE S 06Sep2000                   :
 energy of atom  4       EATOM= -276.8230
 kinetic energy error for atom=    0.0020 (will be added to EATOM!!)
 
 
 POSCAR: Cl4Li24P4S20-1                          
  positions in direct lattice
  No initial velocities read in
 exchange correlation table for  LEXCH =        8
   RHO(1)=    0.500       N(1)  =     2000
   RHO(2)=  100.500       N(2)  =     4000
 


--------------------------------------------------------------------------------------------------------


 ion  position               nearest neighbor table
   1  0.250  0.250  0.750-   5 2.33  10 2.33  18 2.33  19 2.33  22 2.33  25 2.33
   2  0.750  0.750  0.750-   7 2.33  12 2.33  14 2.33  15 2.33  23 2.33  28 2.33
   3  0.250  0.750  0.250-   8 2.33  11 2.33  17 2.33  20 2.33  21 2.33  26 2.33
   4  0.500  0.500  0.500-
   5  0.023  0.250  0.750-   1 2.33  38 2.42  41 2.42  22 3.30  25 3.30  18 3.30  19 3.30
   6  0.523  0.250  0.250-  49 2.33  43 2.42  40 2.42  27 3.30  13 3.30  16 3.30  24 3.30
   7  0.977  0.750  0.750-   2 2.33  34 2.42  45 2.42  23 3.30  28 3.30  14 3.30  15 3.30
   8  0.477  0.750  0.250-   3 2.33  36 2.42  47 2.42  21 3.30  26 3.30  17 3.30  20 3.30
   9  0.977  0.250  0.250-  49 2.33  46 2.42  33 2.42  27 3.30  13 3.30  16 3.30  24 3.30
  10  0.477  0.250  0.750-   1 2.33  35 2.42  48 2.42  22 3.30  25 3.30  18 3.30  19 3.30
  11  0.023  0.750  0.250-   3 2.33  37 2.42  42 2.42  21 3.30  26 3.30  17 3.30  20 3.30
  12  0.523  0.750  0.750-   2 2.33  39 2.42  44 2.42  23 3.30  28 3.30  14 3.30  15 3.30
  13  0.750  0.023  0.250-  49 2.33  47 2.42  37 2.42  27 3.30   6 3.30   9 3.30  24 3.30
  14  0.750  0.523  0.750-   2 2.33  38 2.42  48 2.42  23 3.30  28 3.30   7 3.30  12 3.30
  15  0.750  0.977  0.750-   2 2.33  35 2.42  41 2.42  23 3.30  28 3.30   7 3.30  12 3.30
  16  0.750  0.477  0.250-  49 2.33  42 2.42  36 2.42  27 3.30   6 3.30   9 3.30  24 3.30
  17  0.250  0.977  0.250-   3 2.33  33 2.42  43 2.42  21 3.30  26 3.30   8 3.30  11 3.30
  18  0.250  0.477  0.750-   1 2.33  34 2.42  44 2.42  22 3.30  25 3.30   5 3.30  10 3.30
  19  0.250  0.023  0.750-   1 2.33  39 2.42  45 2.42  22 3.30  25 3.30   5 3.30  10 3.30
  20  0.250  0.523  0.250-   3 2.33  40 2.42  46 2.42  21 3.30  26 3.30   8 3.30  11 3.30
  21  0.250  0.750  0.023-   3 2.33  44 2.42  45 2.42  17 3.30  20 3.30   8 3.30  11 3.30
  22  0.250  0.250  0.523-   1 2.33  43 2.42  46 2.42  18 3.30  19 3.30   5 3.30  10 3.30
  23  0.750  0.750  0.977-   2 2.33  36 2.42  37 2.42  14 3.30  15 3.30   7 3.30  12 3.30
  24  0.750  0.250  0.477-  49 2.33  38 2.42  35 2.42  16 3.30   6 3.30   9 3.30  13 3.30
  25  0.250  0.250  0.977-   1 2.33  33 2.42  40 2.42  18 3.30  19 3.30   5 3.30  10 3.30
  26  0.250  0.750  0.477-   3 2.33  34 2.42  39 2.42  17 3.30  20 3.30   8 3.30  11 3.30
  27  0.750  0.250  0.023-  49 2.33  48 2.42  41 2.42  16 3.30   6 3.30   9 3.30  13 3.30
  28  0.750  0.750  0.523-   2 2.33  42 2.42  47 2.42  14 3.30  15 3.30   7 3.30  12 3.30
  29  0.000  0.000  0.000-  33 2.06  37 2.06  41 2.06  45 2.06
  30  0.000  0.500  0.500-  34 2.06  38 2.06  42 2.06  46 2.06
  31  0.500  0.000  0.500-  35 2.06  39 2.06  43 2.06  47 2.06
  32  0.500  0.500  0.000-  36 2.06  40 2.06  44 2.06  48 2.06
  33  0.116  0.116  0.116-  29 2.06  17 2.42  25 2.42   9 2.42
  34  0.116  0.616  0.616-  30 2.06  18 2.42  26 2.42   7 2.42
  35  0.616  0.116  0.616-  31 2.06  15 2.42  24 2.42  10 2.42
  36  0.616  0.616  0.116-  32 2.06  16 2.42  23 2.42   8 2.42
  37  0.884  0.884  0.116-  29 2.06  13 2.42  23 2.42  11 2.42
  38  0.884  0.384  0.616-  30 2.06  14 2.42  24 2.42   5 2.42
  39  0.384  0.884  0.616-  31 2.06  19 2.42  26 2.42  12 2.42
  40  0.384  0.384  0.116-  32 2.06  20 2.42  25 2.42   6 2.42
  41  0.884  0.116  0.884-  29 2.06  15 2.42  27 2.42   5 2.42
  42  0.884  0.616  0.384-  30 2.06  16 2.42  28 2.42  11 2.42
  43  0.384  0.116  0.384-  31 2.06  17 2.42  22 2.42   6 2.42
  44  0.384  0.616  0.884-  32 2.06  18 2.42  21 2.42  12 2.42
  45  0.116  0.884  0.884-  29 2.06  19 2.42  21 2.42   7 2.42
  46  0.116  0.384  0.384-  30 2.06  20 2.42  22 2.42   9 2.42
  47  0.616  0.884  0.384-  31 2.06  13 2.42  28 2.42   8 2.42
  48  0.616  0.384  0.884-  32 2.06  14 2.42  27 2.42  10 2.42
  49  0.750  0.250  0.250-   6 2.33   9 2.33  13 2.33  16 2.33  24 2.33  27 2.33
  50  0.000  0.000  0.500-
  51  0.000  0.500  0.000-
  52  0.500  0.000  0.000-
 
  LATTYP: Found a simple cubic cell.
 ALAT       =    10.2795000000
  
  Lattice vectors:
  
 A1 = (  10.2795000000,   0.0000000000,   0.0000000000)
 A2 = (   0.0000000000,  10.2795000000,   0.0000000000)
 A3 = (   0.0000000000,   0.0000000000,  10.2795000000)


Analysis of symmetry for initial positions (statically):
=====================================================================
 Subroutine PRICEL returns:
 Original cell was already a primitive cell.
 

 Routine SETGRP: Setting up the symmetry group for a 
 simple cubic supercell.


 Subroutine GETGRP returns: Found  6 space group operations
 (whereof  6 operations were pure point group operations)
 out of a pool of 48 trial point group operations.


The static configuration has the point symmetry C_3v.


Analysis of symmetry for dynamics (positions and initial velocities):
=====================================================================
 Subroutine PRICEL returns:
 Original cell was already a primitive cell.
 

 Routine SETGRP: Setting up the symmetry group for a 
 simple cubic supercell.


 Subroutine GETGRP returns: Found  6 space group operations
 (whereof  6 operations were pure point group operations)
 out of a pool of 48 trial point group operations.


The dynamic configuration has the point symmetry C_3v.


 Subroutine INISYM returns: Found  6 space group operations
 (whereof  6 operations are pure point group operations),
 and found     1 'primitive' translations

 
 
 KPOINTS: Li6PS5Cl                                

Automatic generation of k-mesh.
Space group operators:
 irot       det(A)        alpha          n_x          n_y          n_z        tau_x        tau_y        tau_z
    1     1.000000     0.000000     1.000000     0.000000     0.000000     0.000000     0.000000     0.000000
    2     1.000000   120.000000    -0.577350     0.577350     0.577350     0.000000     0.000000     0.000000
    3    -1.000000   180.000000     0.707107     0.000000     0.707107     0.000000     0.000000     0.000000
    4    -1.000000   180.000000     0.707107     0.707107     0.000000     0.000000     0.000000     0.000000
    5     1.000000   120.000000     0.577350    -0.577350    -0.577350     0.000000     0.000000     0.000000
    6    -1.000000   180.000000     0.000000    -0.707107     0.707107     0.000000     0.000000     0.000000
 
 Subroutine IBZKPT returns following result:
 ===========================================
 
 Found      1 irreducible k-points:
 
 Following reciprocal coordinates:
            Coordinates               Weight
  0.000000  0.000000  0.000000      1.000000
 
 Following cartesian coordinates:
            Coordinates               Weight
  0.000000  0.000000  0.000000      1.000000
 


--------------------------------------------------------------------------------------------------------




 Dimension of arrays:
   k-points           NKPTS =      1   k-points in BZ     NKDIM =      1   number of bands    NBANDS=    126
   number of dos      NEDOS =    301   number of ions     NIONS =     52
   non local maximal  LDIM  =      4   non local SUM 2l+1 LMDIM =      8
   total plane-waves  NPLWV = 175616
   max r-space proj   IRMAX =   1117   max aug-charges    IRDMAX=   5372
   dimension x,y,z NGX =    56 NGY =   56 NGZ =   56
   dimension x,y,z NGXF=   112 NGYF=  112 NGZF=  112
   support grid    NGXF=   112 NGYF=  112 NGZF=  112
   ions per type =               4  24   4  20
 NGX,Y,Z   is equivalent  to a cutoff of   9.06,  9.06,  9.06 a.u.
 NGXF,Y,Z  is equivalent  to a cutoff of  18.11, 18.11, 18.11 a.u.


 I would recommend the setting:
   dimension x,y,z NGX =    56 NGY =   56 NGZ =   56
 SYSTEM =  Li6PS5Cl                                
 POSCAR =  Cl4Li24P4S20-1                          

 Startparameter for this run:
   NWRITE =      2    write-flag & timer
   PREC   = normal    normal or accurate (medium, high low for compatibility)
   ISTART =      0    job   : 0-new  1-cont  2-samecut
   ICHARG =      2    charge: 1-file 2-atom 10-const
   ISPIN  =      1    spin polarized calculation?
   LNONCOLLINEAR =      F non collinear calculations
   LSORBIT =      F    spin-orbit coupling
   INIWAV =      1    electr: 0-lowe 1-rand  2-diag
   LASPH  =      F    aspherical Exc in radial PAW
   METAGGA=      F    non-selfconsistent MetaGGA calc.

 Electronic Relaxation 1
   ENCUT  =  500.0 eV  36.75 Ry    6.06 a.u.  18.74 18.74 18.74*2*pi/ulx,y,z
   ENINI  =  500.0     initial cutoff
   ENAUG  =  356.2 eV  augmentation charge cutoff
   NELM   =    100;   NELMIN=  2; NELMDL= -5     # of ELM steps 
   EDIFF  = 0.1E-03   stopping-criterion for ELM
   LREAL  =      T    real-space projection
   NLSPLINE    = F    spline interpolate recip. space projectors
   LCOMPAT=      F    compatible to vasp.4.4
   GGA_COMPAT  = T    GGA compatible to vasp.4.4-vasp.4.6
   LMAXPAW     = -100 max onsite density
   LMAXMIX     =    2 max onsite mixed and CHGCAR
   VOSKOWN=      0    Vosko Wilk Nusair interpolation
   ROPT   =   -0.00050  -0.00050  -0.00050  -0.00050
 Ionic relaxation
   EDIFFG = -.4E-01   stopping-criterion for IOM
   NSW    =    200    number of steps for IOM
   NBLOCK =      1;   KBLOCK =     10    inner block; outer block 
   IBRION =      2    ionic relax: 0-MD 1-quasi-New 2-CG
   NFREE  =      1    steps in history (QN), initial steepest desc. (CG)
   ISIF   =      3    stress and relaxation
   IWAVPR =     11    prediction:  0-non 1-charg 2-wave 3-comb
   ISYM   =      2    0-nonsym 1-usesym 2-fastsym
   LCORR  =      T    Harris-Foulkes like correction to forces

   POTIM  = 0.5000    time-step for ionic-motion
   TEIN   =    0.0    initial temperature
   TEBEG  =    0.0;   TEEND  =   0.0 temperature during run
   SMASS  =   3.00    Nose mass-parameter (am)
   estimated Nose-frequenzy (Omega)   =  0.90E+10 period in steps =****** mass=   0.241E-26a.u.
   SCALEE = 1.0000    scale energy and forces
   NPACO  =    256;   APACO  = 16.0  distance and # of slots for P.C.
   PSTRESS=    0.0 pullay stress

  Mass of Ions in am
   POMASS =  35.45  7.01 30.97 32.07
  Ionic Valenz
   ZVAL   =   7.00  1.00  5.00  6.00
  Atomic Wigner-Seitz radii
   RWIGS  =  -1.00 -1.00 -1.00 -1.00
  virtual crystal weights 
   VCA    =   1.00  1.00  1.00  1.00
   NELECT =     192.0000    total number of electrons
   NUPDOWN=      -1.0000    fix difference up-down

 DOS related values:
   EMIN   =  10.00;   EMAX   =-10.00  energy-range for DOS
   EFERMI =   0.00
   ISMEAR =     0;   SIGMA  =   0.05  broadening in eV -4-tet -1-fermi 0-gaus

 Electronic relaxation 2 (details)
   IALGO  =     38    algorithm
   LDIAG  =      T    sub-space diagonalisation (order eigenvalues)
   LSUBROT=      F    optimize rotation matrix (better conditioning)
   TURBO    =      0    0=normal 1=particle mesh
   IRESTART =      0    0=no restart 2=restart with 2 vectors
   NREBOOT  =      0    no. of reboots
   NMIN     =      0    reboot dimension
   EREF     =   0.00    reference energy to select bands
   IMIX   =      4    mixing-type and parameters
     AMIX     =   0.40;   BMIX     =  3.00
     AMIX_MAG =   1.60;   BMIX_MAG =  3.00
     AMIN     =   0.10
     WC   =   100.;   INIMIX=   1;  MIXPRE=   1;  MAXMIX= -45

 Intra band minimization:
   WEIMIN = 0.0010     energy-eigenvalue tresh-hold
   EBREAK =  0.20E-06  absolut break condition
   DEPER  =   0.30     relativ break condition  

   TIME   =   0.40     timestep for ELM

  volume/ion in A,a.u.               =      20.89       140.96
  Fermi-wavevector in a.u.,A,eV,Ry     =   0.918762  1.736209 11.485011  0.844124
  Thomas-Fermi vector in A             =   2.043881
 
 Write flags
   LWAVE  =      F    write WAVECAR
   LCHARG =      T    write CHGCAR
   LVTOT  =      F    write LOCPOT, total local potential
   LVHAR  =      F    write LOCPOT, Hartree potential only
   LELF   =      F    write electronic localiz. function (ELF)
   LORBIT =     11    0 simple, 1 ext, 2 COOP (PROOUT)


 Dipole corrections
   LMONO  =      F    monopole corrections only (constant potential shift)
   LDIPOL =      F    correct potential (dipole corrections)
   IDIPOL =      0    1-x, 2-y, 3-z, 4-all directions 
   EPSILON=  1.0000000 bulk dielectric constant

 Exchange correlation treatment:
   GGA     =    --    GGA type
   LEXCH   =     8    internal setting for exchange type
   VOSKOWN=      0    Vosko Wilk Nusair interpolation
   LHFCALC =     F    Hartree Fock is set to
   LHFONE  =     F    Hartree Fock one center treatment
   AEXX    =    0.0000 exact exchange contribution

 Linear response parameters
   LEPSILON=     F    determine dielectric tensor
   LRPA    =     F    only Hartree local field effects (RPA)
   LNABLA  =     F    use nabla operator in PAW spheres
   LVEL    =     F    velocity operator in full k-point grid
   LINTERFAST=   F  fast interpolation
   KINTER  =     0    interpolate to denser k-point grid
   CSHIFT  =0.1000    complex shift for real part using Kramers Kronig
   OMEGAMAX=  -1.0    maximum frequency
   DEG_THRESHOLD= 0.2000000E-02 threshold for treating states as degnerate
   RTIME   =    0.100 relaxation time in fs

 Orbital magnetization related:
   ORBITALMAG=     F  switch on orbital magnetization
   LCHIMAG   =     F  perturbation theory with respect to B field
   DQ        =  0.001000  dq finite difference perturbation B field



--------------------------------------------------------------------------------------------------------


 conjugate gradient relaxation of ions
 charge density and potential will be updated during run
 non-spin polarized calculation
 Variant of blocked Davidson
 Davidson routine will perform the subspace rotation
 perform sub-space diagonalisation
    after iterative eigenvector-optimisation
 modified Broyden-mixing scheme, WC =      100.0
 initial mixing is a Kerker type mixing with AMIX =  0.4000 and BMIX =      3.0000
 Hartree-type preconditioning will be used
 using additional bands           30
 real space projection scheme for non local part
 use partial core corrections
 calculate Harris-corrections to forces 
   (improved forces if not selfconsistent)
 use gradient corrections 
 use of overlap-Matrix (Vanderbilt PP)
 Gauss-broadening in eV      SIGMA  =   0.05


--------------------------------------------------------------------------------------------------------


  energy-cutoff  :      500.00
  volume of cell :     1086.22
      direct lattice vectors                 reciprocal lattice vectors
    10.279500000  0.000000000  0.000000000     0.097280996  0.000000000  0.000000000
     0.000000000 10.279500000  0.000000000     0.000000000  0.097280996  0.000000000
     0.000000000  0.000000000 10.279500000     0.000000000  0.000000000  0.097280996

  length of vectors
    10.279500000 10.279500000 10.279500000     0.097280996  0.097280996  0.097280996


 
 k-points in units of 2pi/SCALE and weight: Li6PS5Cl                                
   0.00000000  0.00000000  0.00000000       1.000
 
 k-points in reciprocal lattice and weights: Li6PS5Cl                                
   0.00000000  0.00000000  0.00000000       1.000
 
 position of ions in fractional coordinates (direct lattice) 
   0.25000000  0.25000000  0.75000000
   0.75000000  0.75000000  0.75000000
   0.25000000  0.75000000  0.25000000
   0.50000000  0.50000000  0.50000000
   0.02311000  0.25000000  0.75000000
   0.52311000  0.25000000  0.25000000
   0.97689000  0.75000000  0.75000000
   0.47689000  0.75000000  0.25000000
   0.97689000  0.25000000  0.25000000
   0.47689000  0.25000000  0.75000000
   0.02311000  0.75000000  0.25000000
   0.52311000  0.75000000  0.75000000
   0.75000000  0.02311000  0.25000000
   0.75000000  0.52311000  0.75000000
   0.75000000  0.97689000  0.75000000
   0.75000000  0.47689000  0.25000000
   0.25000000  0.97689000  0.25000000
   0.25000000  0.47689000  0.75000000
   0.25000000  0.02311000  0.75000000
   0.25000000  0.52311000  0.25000000
   0.25000000  0.75000000  0.02311000
   0.25000000  0.25000000  0.52311000
   0.75000000  0.75000000  0.97689000
   0.75000000  0.25000000  0.47689000
   0.25000000  0.25000000  0.97689000
   0.25000000  0.75000000  0.47689000
   0.75000000  0.25000000  0.02311000
   0.75000000  0.75000000  0.52311000
   0.00000000  0.00000000  0.00000000
   0.00000000  0.50000000  0.50000000
   0.50000000  0.00000000  0.50000000
   0.50000000  0.50000000  0.00000000
   0.11552000  0.11552000  0.11552000
   0.11552000  0.61552000  0.61552000
   0.61552000  0.11552000  0.61552000
   0.61552000  0.61552000  0.11552000
   0.88448000  0.88448000  0.11552000
   0.88448000  0.38448000  0.61552000
   0.38448000  0.88448000  0.61552000
   0.38448000  0.38448000  0.11552000
   0.88448000  0.11552000  0.88448000
   0.88448000  0.61552000  0.38448000
   0.38448000  0.11552000  0.38448000
   0.38448000  0.61552000  0.88448000
   0.11552000  0.88448000  0.88448000
   0.11552000  0.38448000  0.38448000
   0.61552000  0.88448000  0.38448000
   0.61552000  0.38448000  0.88448000
   0.75000000  0.25000000  0.25000000
   0.00000000  0.00000000  0.50000000
   0.00000000  0.50000000  0.00000000
   0.50000000  0.00000000  0.00000000
 
 position of ions in cartesian coordinates  (Angst):
   2.56987500  2.56987500  7.70962500
   7.70962500  7.70962500  7.70962500
   2.56987500  7.70962500  2.56987500
   5.13975000  5.13975000  5.13975000
   0.23755925  2.56987500  7.70962500
   5.37730925  2.56987500  2.56987500
  10.04194075  7.70962500  7.70962500
   4.90219075  7.70962500  2.56987500
  10.04194075  2.56987500  2.56987500
   4.90219075  2.56987500  7.70962500
   0.23755925  7.70962500  2.56987500
   5.37730925  7.70962500  7.70962500
   7.70962500  0.23755925  2.56987500
   7.70962500  5.37730925  7.70962500
   7.70962500 10.04194075  7.70962500
   7.70962500  4.90219075  2.56987500
   2.56987500 10.04194075  2.56987500
   2.56987500  4.90219075  7.70962500
   2.56987500  0.23755925  7.70962500
   2.56987500  5.37730925  2.56987500
   2.56987500  7.70962500  0.23755925
   2.56987500  2.56987500  5.37730925
   7.70962500  7.70962500 10.04194075
   7.70962500  2.56987500  4.90219075
   2.56987500  2.56987500 10.04194075
   2.56987500  7.70962500  4.90219075
   7.70962500  2.56987500  0.23755925
   7.70962500  7.70962500  5.37730925
   0.00000000  0.00000000  0.00000000
   0.00000000  5.13975000  5.13975000
   5.13975000  0.00000000  5.13975000
   5.13975000  5.13975000  0.00000000
   1.18748784  1.18748784  1.18748784
   1.18748784  6.32723784  6.32723784
   6.32723784  1.18748784  6.32723784
   6.32723784  6.32723784  1.18748784
   9.09201216  9.09201216  1.18748784
   9.09201216  3.95226216  6.32723784
   3.95226216  9.09201216  6.32723784
   3.95226216  3.95226216  1.18748784
   9.09201216  1.18748784  9.09201216
   9.09201216  6.32723784  3.95226216
   3.95226216  1.18748784  3.95226216
   3.95226216  6.32723784  9.09201216
   1.18748784  9.09201216  9.09201216
   1.18748784  3.95226216  3.95226216
   6.32723784  9.09201216  3.95226216
   6.32723784  3.95226216  9.09201216
   7.70962500  2.56987500  2.56987500
   0.00000000  0.00000000  5.13975000
   0.00000000  5.13975000  0.00000000
   5.13975000  0.00000000  0.00000000
 


--------------------------------------------------------------------------------------------------------


 k-point  1 :   0.0000 0.0000 0.0000  plane waves:   27609

 maximum and minimum number of plane-waves per node :      6912     6893

 maximum number of plane-waves:     27609
 maximum index in each direction: 
   IXMAX=   18   IYMAX=   18   IZMAX=   18
   IXMIN=  -18   IYMIN=  -18   IZMIN=  -18

 WARNING: aliasing errors must be expected set NGX to  74 to avoid them
 WARNING: aliasing errors must be expected set NGY to  74 to avoid them
 WARNING: aliasing errors must be expected set NGZ to  74 to avoid them
 aliasing errors are usually negligible using standard VASP settings
 and one can safely disregard these warnings

 real space projection operators:
  total allocation   :       2722.25 KBytes
  max/ min on nodes  :        689.19        660.94


 parallel 3D FFT for wavefunctions:
    minimum data exchange during FFTs selected (reduces bandwidth)
 parallel 3D FFT for charge:
    minimum data exchange during FFTs selected (reduces bandwidth)


 total amount of memory used by VASP on root node    43996. kBytes
========================================================================

   base      :      30000. kBytes
   nonlr-proj:       1785. kBytes
   fftplans  :       3473. kBytes
   grid      :       6347. kBytes
   one-center:         39. kBytes
   wavefun   :       2352. kBytes
 
     INWAV:  cpu time    0.0010: real time    0.0001
 Broyden mixing: mesh for mixing (old mesh)
   NGX = 37   NGY = 37   NGZ = 37
  (NGX  =112   NGY  =112   NGZ  =112)
  gives a total of  50653 points

 initial charge density was supplied:
 charge density of overlapping atoms calculated
 number of electron     192.0000000 magnetization 
 keeping initial charge density in first step


--------------------------------------------------------------------------------------------------------


 Maximum index for non-local projection operator          264
 Maximum index for augmentation-charges          349 (set IRDMAX)


--------------------------------------------------------------------------------------------------------


 First call to EWALD:  gamma=   0.172
 Maximum number of real-space cells 3x 3x 3
 Maximum number of reciprocal cells 3x 3x 3

 FEWALD executed in parallel
    FEWALD:  cpu time    0.0020: real time    0.0027


----------------------------------------- Iteration    1(   1)  ---------------------------------------


    POTLOK:  cpu time    0.0510: real time    0.0516
    SETDIJ:  cpu time    0.0060: real time    0.0059
     EDDAV:  cpu time    0.4679: real time    0.4704
       DOS:  cpu time    0.0000: real time    0.0002
    --------------------------------------------
      LOOP:  cpu time    0.5379: real time    0.5422

 eigenvalue-minimisations  :   252
 total energy-change (2. order) : 0.1007938E+04  (-0.7225951E+04)
 number of electron     192.0000000 magnetization 
 augmentation part      192.0000000 magnetization 

 Free energy of the ion-electron system (eV)
  ---------------------------------------------------
  alpha Z        PSCENC =       135.56103520
  Ewald energy   TEWEN  =     -5989.56213650
  -Hartree energ DENC   =     -1929.20883867
  -exchange      EXHF   =         0.00000000
  -V(xc)+E(xc)   XCENC  =       238.86054443
  PAW double counting   =      6393.72776284    -6164.32901183
  entropy T*S    EENTRO =        -0.02232533
  eigenvalues    EBANDS =       316.22953564
  atomic energy  EATOM  =      8006.68156411
  Solvation  Ediel_sol  =         0.00000000
  ---------------------------------------------------
  free energy    TOTEN  =      1007.93812989 eV

  energy without entropy =     1007.96045522  energy(sigma->0) =     1007.94929255


--------------------------------------------------------------------------------------------------------




----------------------------------------- Iteration    1(   2)  ---------------------------------------


     EDDAV:  cpu time    0.5879: real time    0.5879
       DOS:  cpu time    0.0000: real time    0.0001
    --------------------------------------------
      LOOP:  cpu time    0.5879: real time    0.5903

 eigenvalue-minimisations  :   342
 total energy-change (2. order) :-0.1098103E+04  (-0.1060430E+04)
 number of electron     192.0000000 magnetization 
 augmentation part      192.0000000 magnetization 

 Free energy of the ion-electron system (eV)
  ---------------------------------------------------
  alpha Z        PSCENC =       135.56103520
  Ewald energy   TEWEN  =     -5989.56213650
  -Hartree energ DENC   =     -1929.20883867
  -exchange      EXHF   =         0.00000000
  -V(xc)+E(xc)   XCENC  =       238.86054443
  PAW double counting   =      6393.72776284    -6164.32901183
  entropy T*S    EENTRO =         0.00000000
  eigenvalues    EBANDS =      -781.89597279
  atomic energy  EATOM  =      8006.68156411
  Solvation  Ediel_sol  =         0.00000000
  ---------------------------------------------------
  free energy    TOTEN  =       -90.16505321 eV

  energy without entropy =      -90.16505321  energy(sigma->0) =      -90.16505321


--------------------------------------------------------------------------------------------------------




----------------------------------------- Iteration    1(   3)  ---------------------------------------


     EDDAV:  cpu time    0.5269: real time    0.5295
       DOS:  cpu time    0.0000: real time    0.0001
    --------------------------------------------
      LOOP:  cpu time    0.5269: real time    0.5322

 eigenvalue-minimisations  :   300
 total energy-change (2. order) :-0.1214276E+03  (-0.1206846E+03)
 number of electron     192.0000000 magnetization 
 augmentation part      192.0000000 magnetization 

 Free energy of the ion-electron system (eV)
  ---------------------------------------------------
  alpha Z        PSCENC =       135.56103520
  Ewald energy   TEWEN  =     -5989.56213650
  -Hartree energ DENC   =     -1929.20883867
  -exchange      EXHF   =         0.00000000
  -V(xc)+E(xc)   XCENC  =       238.86054443
  PAW double counting   =      6393.72776284    -6164.32901183
  entropy T*S    EENTRO =         0.00000000
  eigenvalues    EBANDS =      -903.32358221
  atomic energy  EATOM  =      8006.68156411
  Solvation  Ediel_sol  =         0.00000000
  ---------------------------------------------------
  free energy    TOTEN  =      -211.59266263 eV

  energy without entropy =     -211.59266263  energy(sigma->0) =     -211.59266263


--------------------------------------------------------------------------------------------------------




----------------------------------------- Iteration    1(   4)  ---------------------------------------


     EDDAV:  cpu time    0.5439: real time    0.5481
       DOS:  cpu time    0.0000: real time    0.0001
    --------------------------------------------
      LOOP:  cpu time    0.5449: real time    0.5508

 eigenvalue-minimisations  :   312
 total energy-change (2. order) :-0.2967162E+01  (-0.2949538E+01)
 number of electron     192.0000000 magnetization 
 augmentation part      192.0000000 magnetization 

 Free energy of the ion-electron system (eV)
  ---------------------------------------------------
  alpha Z        PSCENC =       135.56103520
  Ewald energy   TEWEN  =     -5989.56213650
  -Hartree energ DENC   =     -1929.20883867
  -exchange      EXHF   =         0.00000000
  -V(xc)+E(xc)   XCENC  =       238.86054443
  PAW double counting   =      6393.72776284    -6164.32901183
  entropy T*S    EENTRO =         0.00000000
  eigenvalues    EBANDS =      -906.29074398
  atomic energy  EATOM  =      8006.68156411
  Solvation  Ediel_sol  =         0.00000000
  ---------------------------------------------------
  free energy    TOTEN  =      -214.55982440 eV

  energy without entropy =     -214.55982440  energy(sigma->0) =     -214.55982440


--------------------------------------------------------------------------------------------------------




----------------------------------------- Iteration    1(   5)  ---------------------------------------


     EDDAV:  cpu time    0.5259: real time    0.5266
       DOS:  cpu time    0.0000: real time    0.0001
    CHARGE:  cpu time    0.0360: real time    0.0360
    MIXING:  cpu time    0.0020: real time    0.0018
    --------------------------------------------
      LOOP:  cpu time    0.5639: real time    0.5672

 eigenvalue-minimisations  :   300
 total energy-change (2. order) :-0.9771453E-01  (-0.9754925E-01)
 number of electron     192.0000067 magnetization 
 augmentation part      -22.6233369 magnetization 

 Broyden mixing:
  rms(total) = 0.31222E+01    rms(broyden)= 0.31221E+01
  rms(prec ) = 0.35357E+01
  weight for this iteration     100.00

 Free energy of the ion-electron system (eV)
  ---------------------------------------------------
  alpha Z        PSCENC =       135.56103520
  Ewald energy   TEWEN  =     -5989.56213650
  -Hartree energ DENC   =     -1929.20883867
  -exchange      EXHF   =         0.00000000
  -V(xc)+E(xc)   XCENC  =       238.86054443
  PAW double counting   =      6393.72776284    -6164.32901183
  entropy T*S    EENTRO =         0.00000000
  eigenvalues    EBANDS =      -906.38845851
  atomic energy  EATOM  =      8006.68156411
  Solvation  Ediel_sol  =         0.00000000
  ---------------------------------------------------
  free energy    TOTEN  =      -214.65753893 eV

  energy without entropy =     -214.65753893  energy(sigma->0) =     -214.65753893


--------------------------------------------------------------------------------------------------------




----------------------------------------- Iteration    1(   6)  ---------------------------------------


    POTLOK:  cpu time    0.0490: real time    0.0496
    SETDIJ:  cpu time    0.0060: real time    0.0055
     EDDAV:  cpu time    0.5429: real time    0.5456
       DOS:  cpu time    0.0000: real time    0.0002
    CHARGE:  cpu time    0.0360: real time    0.0358
    MIXING:  cpu time    0.0020: real time    0.0019
    --------------------------------------------
      LOOP:  cpu time    0.6369: real time    0.6411

 eigenvalue-minimisations  :   312
 total energy-change (2. order) : 0.5484912E+01  (-0.3655212E+00)
 number of electron     192.0000066 magnetization 
 augmentation part      -22.4518039 magnetization 

 Broyden mixing:
  rms(total) = 0.21406E+01    rms(broyden)= 0.21406E+01
  rms(prec ) = 0.24415E+01
  weight for this iteration     100.00

 eigenvalues of (default mixing * dielectric matrix)
  average eigenvalue GAMMA=   2.9609
  2.9609

 Free energy of the ion-electron system (eV)
  ---------------------------------------------------
  alpha Z        PSCENC =       135.56103520
  Ewald energy   TEWEN  =     -5989.56213650
  -Hartree energ DENC   =     -1954.67254489
  -exchange      EXHF   =         0.00000000
  -V(xc)+E(xc)   XCENC  =       242.28223175
  PAW double counting   =      9603.62751588    -9377.59954322
  entropy T*S    EENTRO =         0.00000000
  eigenvalues    EBANDS =      -875.49074920
  atomic energy  EATOM  =      8006.68156411
  Solvation  Ediel_sol  =         0.00000000
  ---------------------------------------------------
  free energy    TOTEN  =      -209.17262687 eV

  energy without entropy =     -209.17262687  energy(sigma->0) =     -209.17262687


--------------------------------------------------------------------------------------------------------




----------------------------------------- Iteration    1(   7)  ---------------------------------------


    POTLOK:  cpu time    0.0490: real time    0.0498
    SETDIJ:  cpu time    0.0060: real time    0.0055
     EDDAV:  cpu time    0.5419: real time    0.5426
       DOS:  cpu time    0.0000: real time    0.0002
    CHARGE:  cpu time    0.0360: real time    0.0367
    MIXING:  cpu time    0.0020: real time    0.0017
    --------------------------------------------
      LOOP:  cpu time    0.6359: real time    0.6393

 eigenvalue-minimisations  :   312
 total energy-change (2. order) : 0.3773845E+01  (-0.1592163E+01)
 number of electron     192.0000061 magnetization 
 augmentation part      -22.2066745 magnetization 

 Broyden mixing:
  rms(total) = 0.69043E+00    rms(broyden)= 0.69043E+00
  rms(prec ) = 0.10033E+01
  weight for this iteration     100.00

 eigenvalues of (default mixing * dielectric matrix)
  average eigenvalue GAMMA=   1.8328
  0.6218  3.0437

 Free energy of the ion-electron system (eV)
  ---------------------------------------------------
  alpha Z        PSCENC =       135.56103520
  Ewald energy   TEWEN  =     -5989.56213650
  -Hartree energ DENC   =     -2014.31564820
  -exchange      EXHF   =         0.00000000
  -V(xc)+E(xc)   XCENC  =       250.12583011
  PAW double counting   =     18603.04778365   -18382.04461223
  entropy T*S    EENTRO =        -0.06882210
  eigenvalues    EBANDS =      -814.82377638
  atomic energy  EATOM  =      8006.68156411
  Solvation  Ediel_sol  =         0.00000000
  ---------------------------------------------------
  free energy    TOTEN  =      -205.39878235 eV

  energy without entropy =     -205.32996025  energy(sigma->0) =     -205.36437130


--------------------------------------------------------------------------------------------------------




----------------------------------------- Iteration    1(   8)  ---------------------------------------


    POTLOK:  cpu time    0.0490: real time    0.0495
    SETDIJ:  cpu time    0.0060: real time    0.0056
     EDDAV:  cpu time    0.5229: real time    0.5255
       DOS:  cpu time    0.0000: real time    0.0003
    CHARGE:  cpu time    0.0370: real time    0.0365
    MIXING:  cpu time    0.0020: real time    0.0017
    --------------------------------------------
      LOOP:  cpu time    0.6179: real time    0.6220

 eigenvalue-minimisations  :   300
 total energy-change (2. order) : 0.8764065E-01  (-0.2198907E+00)
 number of electron     192.0000061 magnetization 
 augmentation part      -22.0141769 magnetization 

 Broyden mixing:
  rms(total) = 0.62540E+00    rms(broyden)= 0.62540E+00
  rms(prec ) = 0.71938E+00
  weight for this iteration     100.00

 eigenvalues of (default mixing * dielectric matrix)
  average eigenvalue GAMMA=   1.3646
  2.6917  1.1688  0.2333

 Free energy of the ion-electron system (eV)
  ---------------------------------------------------
  alpha Z        PSCENC =       135.56103520
  Ewald energy   TEWEN  =     -5989.56213650
  -Hartree energ DENC   =     -2015.92004484
  -exchange      EXHF   =         0.00000000
  -V(xc)+E(xc)   XCENC  =       250.10997177
  PAW double counting   =     18398.27142838   -18176.62544142
  entropy T*S    EENTRO =        -0.00247602
  eigenvalues    EBANDS =      -813.82504238
  atomic energy  EATOM  =      8006.68156411
  Solvation  Ediel_sol  =         0.00000000
  ---------------------------------------------------
  free energy    TOTEN  =      -205.31114170 eV

  energy without entropy =     -205.30866568  energy(sigma->0) =     -205.30990369


--------------------------------------------------------------------------------------------------------




----------------------------------------- Iteration    1(   9)  ---------------------------------------


    POTLOK:  cpu time    0.0500: real time    0.0496
    SETDIJ:  cpu time    0.0050: real time    0.0055
     EDDAV:  cpu time    0.5259: real time    0.5277
       DOS:  cpu time    0.0000: real time    0.0002
    CHARGE:  cpu time    0.0360: real time    0.0364
    MIXING:  cpu time    0.0020: real time    0.0019
    --------------------------------------------
      LOOP:  cpu time    0.6189: real time    0.6242

 eigenvalue-minimisations  :   300
 total energy-change (2. order) :-0.8234442E-01  (-0.6314363E-01)
 number of electron     192.0000061 magnetization 
 augmentation part      -22.0368121 magnetization 

 Broyden mixing:
  rms(total) = 0.38945E+00    rms(broyden)= 0.38945E+00
  rms(prec ) = 0.51762E+00
  weight for this iteration     100.00

 eigenvalues of (default mixing * dielectric matrix)
  average eigenvalue GAMMA=   1.5667
  2.9758  1.4853  1.4853  0.3204

 Free energy of the ion-electron system (eV)
  ---------------------------------------------------
  alpha Z        PSCENC =       135.56103520
  Ewald energy   TEWEN  =     -5989.56213650
  -Hartree energ DENC   =     -2016.53585376
  -exchange      EXHF   =         0.00000000
  -V(xc)+E(xc)   XCENC  =       249.97687935
  PAW double counting   =     17170.89017953   -16947.65377971
  entropy T*S    EENTRO =         0.00000000
  eigenvalues    EBANDS =      -814.75137433
  atomic energy  EATOM  =      8006.68156411
  Solvation  Ediel_sol  =         0.00000000
  ---------------------------------------------------
  free energy    TOTEN  =      -205.39348612 eV

  energy without entropy =     -205.39348612  energy(sigma->0) =     -205.39348612


--------------------------------------------------------------------------------------------------------




----------------------------------------- Iteration    1(  10)  ---------------------------------------


    POTLOK:  cpu time    0.0490: real time    0.0497
    SETDIJ:  cpu time    0.0060: real time    0.0056
     EDDAV:  cpu time    0.5419: real time    0.5429
       DOS:  cpu time    0.0000: real time    0.0002
    CHARGE:  cpu time    0.0360: real time    0.0365
    MIXING:  cpu time    0.0030: real time    0.0019
    --------------------------------------------
      LOOP:  cpu time    0.6369: real time    0.6392

 eigenvalue-minimisations  :   312
 total energy-change (2. order) :-0.3060319E-01  (-0.3013042E-01)
 number of electron     192.0000061 magnetization 
 augmentation part      -21.9973329 magnetization 

 Broyden mixing:
  rms(total) = 0.29046E+00    rms(broyden)= 0.29046E+00
  rms(prec ) = 0.37031E+00
  weight for this iteration     100.00

 eigenvalues of (default mixing * dielectric matrix)
  average eigenvalue GAMMA=   1.3841
  2.7825  1.8359  1.2174  0.3178  0.7671

 Free energy of the ion-electron system (eV)
  ---------------------------------------------------
  alpha Z        PSCENC =       135.56103520
  Ewald energy   TEWEN  =     -5989.56213650
  -Hartree energ DENC   =     -2031.47480336
  -exchange      EXHF   =         0.00000000
  -V(xc)+E(xc)   XCENC  =       251.73578724
  PAW double counting   =     17777.10495652   -17553.42936941
  entropy T*S    EENTRO =        -0.00000002
  eigenvalues    EBANDS =      -802.04112308
  atomic energy  EATOM  =      8006.68156411
  Solvation  Ediel_sol  =         0.00000000
  ---------------------------------------------------
  free energy    TOTEN  =      -205.42408931 eV

  energy without entropy =     -205.42408930  energy(sigma->0) =     -205.42408931


--------------------------------------------------------------------------------------------------------




----------------------------------------- Iteration    1(  11)  ---------------------------------------


    POTLOK:  cpu time    0.0490: real time    0.0495
    SETDIJ:  cpu time    0.0060: real time    0.0056
     EDDAV:  cpu time    0.5419: real time    0.5445
       DOS:  cpu time    0.0000: real time    0.0002
    CHARGE:  cpu time    0.0370: real time    0.0368
    MIXING:  cpu time    0.0020: real time    0.0020
    --------------------------------------------
      LOOP:  cpu time    0.6359: real time    0.6418

 eigenvalue-minimisations  :   312
 total energy-change (2. order) :-0.5397309E-01  (-0.4206380E-02)
 number of electron     192.0000061 magnetization 
 augmentation part      -21.9884526 magnetization 

 Broyden mixing:
  rms(total) = 0.23434E+00    rms(broyden)= 0.23434E+00
  rms(prec ) = 0.31729E+00
  weight for this iteration     100.00

 eigenvalues of (default mixing * dielectric matrix)
  average eigenvalue GAMMA=   1.6937
  3.6258  2.4920  1.3477  1.3477  1.0293  0.3199

 Free energy of the ion-electron system (eV)
  ---------------------------------------------------
  alpha Z        PSCENC =       135.56103520
  Ewald energy   TEWEN  =     -5989.56213650
  -Hartree energ DENC   =     -2033.65111938
  -exchange      EXHF   =         0.00000000
  -V(xc)+E(xc)   XCENC  =       251.96031517
  PAW double counting   =     17431.10073889   -17207.16531160
  entropy T*S    EENTRO =        -0.00000002
  eigenvalues    EBANDS =      -800.40314828
  atomic energy  EATOM  =      8006.68156411
  Solvation  Ediel_sol  =         0.00000000
  ---------------------------------------------------
  free energy    TOTEN  =      -205.47806241 eV

  energy without entropy =     -205.47806239  energy(sigma->0) =     -205.47806240


--------------------------------------------------------------------------------------------------------




----------------------------------------- Iteration    1(  12)  ---------------------------------------


    POTLOK:  cpu time    0.0490: real time    0.0496
    SETDIJ:  cpu time    0.0060: real time    0.0056
     EDDAV:  cpu time    0.5279: real time    0.5282
       DOS:  cpu time    0.0000: real time    0.0002
    CHARGE:  cpu time    0.0360: real time    0.0367
    MIXING:  cpu time    0.0030: real time    0.0041
    --------------------------------------------
      LOOP:  cpu time    0.6229: real time    0.6268

 eigenvalue-minimisations  :   300
 total energy-change (2. order) :-0.5904723E-01  (-0.1061790E-01)
 number of electron     192.0000061 magnetization 
 augmentation part      -21.9619063 magnetization 

 Broyden mixing:
  rms(total) = 0.13774E+00    rms(broyden)= 0.13774E+00
  rms(prec ) = 0.19626E+00
  weight for this iteration     100.00

 eigenvalues of (default mixing * dielectric matrix)
  average eigenvalue GAMMA=   1.7741
  4.5783  2.8669  1.4715  1.4715  0.3196  0.8556  0.8556

 Free energy of the ion-electron system (eV)
  ---------------------------------------------------
  alpha Z        PSCENC =       135.56103520
  Ewald energy   TEWEN  =     -5989.56213650
  -Hartree energ DENC   =     -2042.72235141
  -exchange      EXHF   =         0.00000000
  -V(xc)+E(xc)   XCENC  =       253.04191298
  PAW double counting   =     17231.28127376   -17007.02070663
  entropy T*S    EENTRO =        -0.00000366
  eigenvalues    EBANDS =      -792.79769749
  atomic energy  EATOM  =      8006.68156411
  Solvation  Ediel_sol  =         0.00000000
  ---------------------------------------------------
  free energy    TOTEN  =      -205.53710963 eV

  energy without entropy =     -205.53710597  energy(sigma->0) =     -205.53710780


--------------------------------------------------------------------------------------------------------




----------------------------------------- Iteration    1(  13)  ---------------------------------------


    POTLOK:  cpu time    0.0490: real time    0.0495
    SETDIJ:  cpu time    0.0070: real time    0.0055
     EDDAV:  cpu time    0.5589: real time    0.5596
       DOS:  cpu time    0.0000: real time    0.0003
    CHARGE:  cpu time    0.0390: real time    0.0395
    MIXING:  cpu time    0.0020: real time    0.0022
    --------------------------------------------
      LOOP:  cpu time    0.6559: real time    0.6599

 eigenvalue-minimisations  :   324
 total energy-change (2. order) :-0.4486000E-02  (-0.4075709E-02)
 number of electron     192.0000061 magnetization 
 augmentation part      -21.9478113 magnetization 

 Broyden mixing:
  rms(total) = 0.10152E+00    rms(broyden)= 0.10152E+00
  rms(prec ) = 0.14239E+00
  weight for this iteration     100.00

 eigenvalues of (default mixing * dielectric matrix)
  average eigenvalue GAMMA=   1.8440
  4.8194  3.0328  1.8176  1.8176  0.3197  1.0005  0.9722  0.9722

 Free energy of the ion-electron system (eV)
  ---------------------------------------------------
  alpha Z        PSCENC =       135.56103520
  Ewald energy   TEWEN  =     -5989.56213650
  -Hartree energ DENC   =     -2045.21403466
  -exchange      EXHF   =         0.00000000
  -V(xc)+E(xc)   XCENC  =       253.35282374
  PAW double counting   =     17103.34568133   -16879.06598778
  entropy T*S    EENTRO =        -0.00008724
  eigenvalues    EBANDS =      -790.64045381
  atomic energy  EATOM  =      8006.68156411
  Solvation  Ediel_sol  =         0.00000000
  ---------------------------------------------------
  free energy    TOTEN  =      -205.54159563 eV

  energy without entropy =     -205.54150839  energy(sigma->0) =     -205.54155201


--------------------------------------------------------------------------------------------------------




----------------------------------------- Iteration    1(  14)  ---------------------------------------


    POTLOK:  cpu time    0.0490: real time    0.0495
    SETDIJ:  cpu time    0.0060: real time    0.0056
     EDDAV:  cpu time    0.5429: real time    0.5453
       DOS:  cpu time    0.0000: real time    0.0002
    CHARGE:  cpu time    0.0370: real time    0.0367
    MIXING:  cpu time    0.0020: real time    0.0023
    --------------------------------------------
      LOOP:  cpu time    0.6379: real time    0.6426

 eigenvalue-minimisations  :   312
 total energy-change (2. order) : 0.2382479E-02  (-0.1289411E-02)
 number of electron     192.0000061 magnetization 
 augmentation part      -21.9464176 magnetization 

 Broyden mixing:
  rms(total) = 0.64797E-01    rms(broyden)= 0.64797E-01
  rms(prec ) = 0.93219E-01
  weight for this iteration     100.00

 eigenvalues of (default mixing * dielectric matrix)
  average eigenvalue GAMMA=   2.0283
  6.4378  3.0935  2.5801  0.3197  1.6187  1.4711  0.9352  0.9352  0.8632

 Free energy of the ion-electron system (eV)
  ---------------------------------------------------
  alpha Z        PSCENC =       135.56103520
  Ewald energy   TEWEN  =     -5989.56213650
  -Hartree energ DENC   =     -2045.16970975
  -exchange      EXHF   =         0.00000000
  -V(xc)+E(xc)   XCENC  =       253.38347297
  PAW double counting   =     17090.74686683   -16866.52197109
  entropy T*S    EENTRO =        -0.00096655
  eigenvalues    EBANDS =      -790.65736836
  atomic energy  EATOM  =      8006.68156411
  Solvation  Ediel_sol  =         0.00000000
  ---------------------------------------------------
  free energy    TOTEN  =      -205.53921315 eV

  energy without entropy =     -205.53824660  energy(sigma->0) =     -205.53872988


--------------------------------------------------------------------------------------------------------




----------------------------------------- Iteration    1(  15)  ---------------------------------------


    POTLOK:  cpu time    0.0480: real time    0.0497
    SETDIJ:  cpu time    0.0070: real time    0.0056
     EDDAV:  cpu time    0.5449: real time    0.5455
       DOS:  cpu time    0.0000: real time    0.0003
    CHARGE:  cpu time    0.0360: real time    0.0367
    MIXING:  cpu time    0.0020: real time    0.0024
    --------------------------------------------
      LOOP:  cpu time    0.6399: real time    0.6430

 eigenvalue-minimisations  :   312
 total energy-change (2. order) : 0.2563804E-02  (-0.1022611E-02)
 number of electron     192.0000061 magnetization 
 augmentation part      -21.9463708 magnetization 

 Broyden mixing:
  rms(total) = 0.34824E-01    rms(broyden)= 0.34824E-01
  rms(prec ) = 0.47051E-01
  weight for this iteration     100.00

 eigenvalues of (default mixing * dielectric matrix)
  average eigenvalue GAMMA=   2.0218
  6.4974  3.3559  2.3570  1.8261  1.8261  0.3197  1.1450  1.1450  0.8729  0.8729

 Free energy of the ion-electron system (eV)
  ---------------------------------------------------
  alpha Z        PSCENC =       135.56103520
  Ewald energy   TEWEN  =     -5989.56213650
  -Hartree energ DENC   =     -2045.43081449
  -exchange      EXHF   =         0.00000000
  -V(xc)+E(xc)   XCENC  =       253.45506016
  PAW double counting   =     17102.75293777   -16878.57998050
  entropy T*S    EENTRO =        -0.00520977
  eigenvalues    EBANDS =      -790.40910533
  atomic energy  EATOM  =      8006.68156411
  Solvation  Ediel_sol  =         0.00000000
  ---------------------------------------------------
  free energy    TOTEN  =      -205.53664935 eV

  energy without entropy =     -205.53143958  energy(sigma->0) =     -205.53404446


--------------------------------------------------------------------------------------------------------




----------------------------------------- Iteration    1(  16)  ---------------------------------------


    POTLOK:  cpu time    0.0490: real time    0.0497
    SETDIJ:  cpu time    0.0050: real time    0.0063
     EDDAV:  cpu time    0.5249: real time    0.5253
       DOS:  cpu time    0.0000: real time    0.0002
    CHARGE:  cpu time    0.0370: real time    0.0368
    MIXING:  cpu time    0.0030: real time    0.0027
    --------------------------------------------
      LOOP:  cpu time    0.6199: real time    0.6236

 eigenvalue-minimisations  :   300
 total energy-change (2. order) :-0.4247521E-03  (-0.2813552E-03)
 number of electron     192.0000061 magnetization 
 augmentation part      -21.9502202 magnetization 

 Broyden mixing:
  rms(total) = 0.12739E-01    rms(broyden)= 0.12739E-01
  rms(prec ) = 0.20256E-01
  weight for this iteration     100.00

 eigenvalues of (default mixing * dielectric matrix)
  average eigenvalue GAMMA=   2.1626
  6.7300  4.4087  2.7789  2.4724  1.9594  0.3197  1.1790  1.1790  0.9999  0.8808
  0.8808

 Free energy of the ion-electron system (eV)
  ---------------------------------------------------
  alpha Z        PSCENC =       135.56103520
  Ewald energy   TEWEN  =     -5989.56213650
  -Hartree energ DENC   =     -2044.74893547
  -exchange      EXHF   =         0.00000000
  -V(xc)+E(xc)   XCENC  =       253.40687364
  PAW double counting   =     17067.00068552   -16842.83467082
  entropy T*S    EENTRO =        -0.00801354
  eigenvalues    EBANDS =      -791.03347625
  atomic energy  EATOM  =      8006.68156411
  Solvation  Ediel_sol  =         0.00000000
  ---------------------------------------------------
  free energy    TOTEN  =      -205.53707410 eV

  energy without entropy =     -205.52906056  energy(sigma->0) =     -205.53306733


--------------------------------------------------------------------------------------------------------




----------------------------------------- Iteration    1(  17)  ---------------------------------------


    POTLOK:  cpu time    0.0500: real time    0.0497
    SETDIJ:  cpu time    0.0050: real time    0.0056
     EDDAV:  cpu time    0.5099: real time    0.5125
       DOS:  cpu time    0.0000: real time    0.0002
    CHARGE:  cpu time    0.0370: real time    0.0369
    MIXING:  cpu time    0.0030: real time    0.0028
    --------------------------------------------
      LOOP:  cpu time    0.6049: real time    0.6105

 eigenvalue-minimisations  :   288
 total energy-change (2. order) :-0.7048303E-03  (-0.1986180E-03)
 number of electron     192.0000061 magnetization 
 augmentation part      -21.9548540 magnetization 

 Broyden mixing:
  rms(total) = 0.16206E-01    rms(broyden)= 0.16206E-01
  rms(prec ) = 0.19196E-01
  weight for this iteration     100.00

 eigenvalues of (default mixing * dielectric matrix)
  average eigenvalue GAMMA=   2.1513
  6.9228  4.6969  3.2438  2.3051  2.1422  0.3197  1.1611  1.1611  1.0490  1.0490
  0.8826  0.8826

 Free energy of the ion-electron system (eV)
  ---------------------------------------------------
  alpha Z        PSCENC =       135.56103520
  Ewald energy   TEWEN  =     -5989.56213650
  -Hartree energ DENC   =     -2044.00883311
  -exchange      EXHF   =         0.00000000
  -V(xc)+E(xc)   XCENC  =       253.35788312
  PAW double counting   =     17045.94393490   -16821.80238279
  entropy T*S    EENTRO =        -0.01187177
  eigenvalues    EBANDS =      -791.69697208
  atomic energy  EATOM  =      8006.68156411
  Solvation  Ediel_sol  =         0.00000000
  ---------------------------------------------------
  free energy    TOTEN  =      -205.53777893 eV

  energy without entropy =     -205.52590717  energy(sigma->0) =     -205.53184305


--------------------------------------------------------------------------------------------------------




----------------------------------------- Iteration    1(  18)  ---------------------------------------


    POTLOK:  cpu time    0.0490: real time    0.0496
    SETDIJ:  cpu time    0.0060: real time    0.0055
     EDDAV:  cpu time    0.4649: real time    0.4653
       DOS:  cpu time    0.0000: real time    0.0002
    --------------------------------------------
      LOOP:  cpu time    0.5209: real time    0.5230

 eigenvalue-minimisations  :   252
 total energy-change (2. order) :-0.9150379E-04  (-0.2241764E-04)
 number of electron     192.0000061 magnetization 
 augmentation part      -21.9548540 magnetization 

 Free energy of the ion-electron system (eV)
  ---------------------------------------------------
  alpha Z        PSCENC =       135.56103520
  Ewald energy   TEWEN  =     -5989.56213650
  -Hartree energ DENC   =     -2043.92257402
  -exchange      EXHF   =         0.00000000
  -V(xc)+E(xc)   XCENC  =       253.35185990
  PAW double counting   =     17048.61227233   -16824.47381332
  entropy T*S    EENTRO =        -0.01113350
  eigenvalues    EBANDS =      -791.77494463
  atomic energy  EATOM  =      8006.68156411
  Solvation  Ediel_sol  =         0.00000000
  ---------------------------------------------------
  free energy    TOTEN  =      -205.53787044 eV

  energy without entropy =     -205.52673693  energy(sigma->0) =     -205.53230368


--------------------------------------------------------------------------------------------------------




 average (electrostatic) potential at core
  the test charge radii are     0.9406  0.9748  0.9587  0.9698
  (the norm of the test charge is              1.0000)
       1 -96.0298       2 -96.0298       3 -96.0298       4 -92.5404       5 -28.7048
       6 -27.8362       7 -28.7249       8 -29.0042       9 -27.6422      10 -29.0042
      11 -28.7048      12 -29.0266      13 -27.6422      14 -29.0042      15 -28.7048
      16 -27.8362      17 -28.7048      18 -29.0266      19 -28.7249      20 -29.0042
      21 -28.7249      22 -29.0042      23 -28.7048      24 -27.8362      25 -28.7048
      26 -29.0266      27 -27.6422      28 -29.0042      29 -88.9758      30 -89.2548
      31 -89.2548      32 -89.2548      33 -89.4000      34 -89.7772      35 -89.6780
      36 -89.6780      37 -89.4000      38 -89.6780      39 -89.7772      40 -89.6780
      41 -89.4000      42 -89.6780      43 -89.6780      44 -89.7772      45 -89.4671
      46 -89.7139      47 -89.7139      48 -89.7139      49 -87.8898      50 -86.5764
      51 -86.5764      52 -86.5764
 
 
 
 E-fermi :   2.6553     XC(G=0):  -7.7820     alpha+bet : -8.5199


 k-point     1 :       0.0000    0.0000    0.0000
  band No.  band energies     occupation 
      1     -15.7673      2.00000
      2     -15.7661      2.00000
      3     -15.7661      2.00000
      4     -14.2310      2.00000
      5     -14.2168      2.00000
      6     -14.2168      2.00000
      7     -13.9264      2.00000
      8     -11.8248      2.00000
      9     -11.3953      2.00000
     10     -11.3387      2.00000
     11     -11.3387      2.00000
     12     -11.3009      2.00000
     13     -11.3009      2.00000
     14     -11.2555      2.00000
     15     -11.2414      2.00000
     16     -11.2414      2.00000
     17     -11.2312      2.00000
     18     -11.0184      2.00000
     19     -10.9744      2.00000
     20     -10.9744      2.00000
     21      -9.2634      2.00000
     22      -7.3596      2.00000
     23      -7.0071      2.00000
     24      -7.0071      2.00000
     25      -6.9106      2.00000
     26      -6.8825      2.00000
     27      -6.8825      2.00000
     28      -6.6864      2.00000
     29      -4.3402      2.00000
     30      -4.3402      2.00000
     31      -4.3083      2.00000
     32      -4.2993      2.00000
     33      -4.2993      2.00000
     34      -4.2983      2.00000
     35      -4.2878      2.00000
     36      -4.2452      2.00000
     37      -4.2380      2.00000
     38      -4.2380      2.00000
     39      -4.2307      2.00000
     40      -4.2307      2.00000
     41      -3.8442      2.00000
     42      -3.8442      2.00000
     43      -3.8249      2.00000
     44      -3.7063      2.00000
     45      -3.7063      2.00000
     46      -3.6752      2.00000
     47      -3.5345      2.00000
     48      -3.5074      2.00000
     49      -3.5074      2.00000
     50      -1.6397      2.00000
     51      -1.5028      2.00000
     52      -1.5028      2.00000
     53      -1.4477      2.00000
     54      -1.4477      2.00000
     55      -1.3935      2.00000
     56      -1.3935      2.00000
     57      -1.3320      2.00000
     58      -1.2740      2.00000
     59      -1.1818      2.00000
     60      -1.1818      2.00000
     61      -1.1540      2.00000
     62      -1.1241      2.00000
     63      -1.1241      2.00000
     64      -1.1046      2.00000
     65      -1.1038      2.00000
     66      -1.1038      2.00000
     67      -0.8133      2.00000
     68      -0.7965      2.00000
     69      -0.7965      2.00000
     70      -0.2757      2.00000
     71      -0.2757      2.00000
     72      -0.2589      2.00000
     73      -0.2297      2.00000
     74      -0.2297      2.00000
     75      -0.2184      2.00000
     76      -0.1372      2.00000
     77      -0.0951      2.00000
     78      -0.0951      2.00000
     79      -0.0828      2.00000
     80      -0.0552      2.00000
     81      -0.0552      2.00000
     82       0.1330      2.00000
     83       0.1330      2.00000
     84       0.1789      2.00000
     85       0.1927      2.00000
     86       0.1927      2.00000
     87       0.2216      2.00000
     88       2.3683      2.00000
     89       2.3864      2.00000
     90       2.3864      2.00000
     91       2.4637      2.00000
     92       2.4980      1.99999
     93       2.4980      1.99999
     94       2.5646      1.98972
     95       2.5646      1.98972
     96       2.5846      1.95445
     97       2.7203      0.06612
     98       4.2099      0.00000
     99       4.2099      0.00000
    100       4.3887      0.00000
    101       4.4264      0.00000
    102       4.4264      0.00000
    103       4.4480      0.00000
    104       4.4671      0.00000
    105       4.6344      0.00000
    106       4.6344      0.00000
    107       4.6354      0.00000
    108       5.5209      0.00000
    109       5.5209      0.00000
    110       5.5959      0.00000
    111       5.6411      0.00000
    112       5.6854      0.00000
    113       5.6854      0.00000
    114       5.7441      0.00000
    115       5.7441      0.00000
    116       5.8237      0.00000
    117       5.9864      0.00000
    118       5.9864      0.00000
    119       6.1847      0.00000
    120       6.2030      0.00000
    121       6.2030      0.00000
    122       6.2522      0.00000
    123       6.2563      0.00000
    124       6.3413      0.00000
    125       6.4040      0.00000
    126       6.4172      0.00000


--------------------------------------------------------------------------------------------------------


 soft charge-density along one line, spin component           1
         0         1         2         3         4         5         6         7         8         9
 total charge-density along one line
 
 pseudopotential strength for first ion, spin component:           1
 48.671  51.082   0.001  -0.001   0.001   0.002  -0.002   0.002
 51.082  53.615   0.001  -0.001   0.001   0.002  -0.002   0.002
  0.001   0.001   9.256   0.000   0.000  11.476   0.000   0.000
 -0.001  -0.001   0.000   9.256   0.000   0.000  11.476   0.000
  0.001   0.001   0.000   0.000   9.256   0.000   0.000  11.476
  0.002   0.002  11.476   0.000   0.000  14.244   0.000   0.000
 -0.002  -0.002   0.000  11.476   0.000   0.000  14.244   0.000
  0.002   0.002   0.000   0.000  11.476   0.000   0.000  14.244
 total augmentation occupancy for first ion, spin component:           1
  2.192  -1.523  -0.081   0.081  -0.081  -0.018   0.017  -0.017
 -1.523   2.639   0.081  -0.081   0.081   0.008  -0.008   0.008
 -0.081   0.081   3.785  -0.016   0.016  -0.977   0.008  -0.008
  0.081  -0.081  -0.016   3.784  -0.016   0.008  -0.976   0.008
 -0.081   0.081   0.016  -0.016   3.784  -0.008   0.008  -0.976
 -0.018   0.008  -0.977   0.008  -0.008   0.277   0.000   0.000
  0.017  -0.008   0.008  -0.976   0.008   0.000   0.277   0.001
 -0.017   0.008  -0.008   0.008  -0.976   0.000   0.001   0.277


------------------------ aborting loop because EDIFF is reached ----------------------------------------


 


 total charge     
 
# of ion     s       p       d       tot
----------------------------------------
  1        1.588   3.640   0.000   5.228
  2        1.588   3.640   0.000   5.228
  3        1.588   3.640   0.000   5.228
  4        1.592   3.496   0.000   5.088
  5        0.076   0.135   0.000   0.212
  6        0.086   0.150   0.000   0.236
  7        0.076   0.135   0.000   0.211
  8        0.078   0.137   0.000   0.215
  9        0.084   0.147   0.000   0.231
 10        0.078   0.137   0.000   0.215
 11        0.076   0.135   0.000   0.212
 12        0.078   0.136   0.000   0.215
 13        0.084   0.147   0.000   0.231
 14        0.078   0.137   0.000   0.215
 15        0.076   0.135   0.000   0.212
 16        0.086   0.150   0.000   0.236
 17        0.076   0.135   0.000   0.212
 18        0.078   0.136   0.000   0.215
 19        0.076   0.135   0.000   0.211
 20        0.078   0.137   0.000   0.215
 21        0.076   0.135   0.000   0.211
 22        0.078   0.137   0.000   0.215
 23        0.076   0.135   0.000   0.212
 24        0.086   0.150   0.000   0.236
 25        0.076   0.135   0.000   0.212
 26        0.078   0.136   0.000   0.215
 27        0.084   0.147   0.000   0.231
 28        0.078   0.137   0.000   0.215
 29        0.967   1.371   0.000   2.339
 30        0.969   1.373   0.000   2.342
 31        0.969   1.373   0.000   2.342
 32        0.969   1.373   0.000   2.342
[...]
 32        0.966   1.373   0.000   2.338
 33        1.332   2.442   0.000   3.774
 34        1.336   2.444   0.000   3.780
 35        1.328   2.451   0.000   3.779
 36        1.328   2.451   0.000   3.779
 37        1.332   2.442   0.000   3.774
 38        1.328   2.451   0.000   3.779
 39        1.336   2.444   0.000   3.780
 40        1.328   2.451   0.000   3.779
 41        1.332   2.442   0.000   3.774
 42        1.328   2.451   0.000   3.779
 43        1.328   2.451   0.000   3.779
 44        1.336   2.444   0.000   3.780
 45        1.330   2.474   0.000   3.804
 46        1.332   2.443   0.000   3.775
 47        1.332   2.443   0.000   3.775
 48        1.332   2.443   0.000   3.775
 49        1.305   2.519   0.000   3.824
 50        1.307   2.446   0.000   3.753
 51        1.307   2.446   0.000   3.753
 52        1.307   2.446   0.000   3.753
------------------------------------------------
tot       38.779  72.419   0.000 111.198
 
    CHARGE:  cpu time    0.0360: real time    0.0362
    FORLOC:  cpu time    0.0200: real time    0.0190
    FORNL :  cpu time    0.0930: real time    0.0938
    STRESS:  cpu time    0.2950: real time    0.2950
    FORCOR:  cpu time    0.0680: real time    0.0686
    FORHAR:  cpu time    0.0300: real time    0.0318
    MIXING:  cpu time    0.0010: real time    0.0016
    OFIELD:  cpu time    0.0000: real time    0.0000

  FORCE on cell =-STRESS in cart. coord.  units (eV):
  Direction    XX          YY          ZZ          XY          YZ          ZX
  --------------------------------------------------------------------------------------
  Alpha Z   143.06694   143.06694   143.06694
  Ewald   -2047.91654 -2047.91654 -2047.91654    22.22032   -22.22032    22.22032
  Hartree   660.04287   660.04287   660.04287    25.13523   -25.13523    25.13523
  E(xc)    -651.06962  -651.06962  -651.06962     0.06696    -0.06696     0.06696
  Local   -2056.99021 -2056.99021 -2056.99021   -47.01506    47.01506   -47.01506
  n-local  2040.36346  2040.36346  2040.36346    -1.16072     1.16072    -1.16072
  augment  -460.10747  -460.10747  -460.10747     0.05028    -0.05028     0.05028
  Kinetic  2373.27151  2373.27151  2373.27151     0.38735    -0.38735     0.38735
  Fock        0.00000     0.00000     0.00000     0.00000     0.00000     0.00000
  -------------------------------------------------------------------------------------
  Total       0.66095     0.66095     0.66095    -0.31564     0.31564    -0.31564
  in kB       1.02889     1.02889     1.02889    -0.49134     0.49134    -0.49134
  external pressure =        1.03 kB  Pullay stress =        0.00 kB


 VOLUME and BASIS-vectors are now :
 -----------------------------------------------------------------------------
  energy-cutoff  :      500.00
  volume of cell :     1029.23
      direct lattice vectors                 reciprocal lattice vectors
    10.096492569  0.001658371  0.001658371     0.099044301 -0.000016271 -0.000016271
     0.001658371 10.096492569 -0.001658371    -0.000016271  0.099044301  0.000016271
     0.001658371 -0.001658371 10.096492569    -0.000016271  0.000016271  0.099044301

  length of vectors
    10.096492841 10.096492841 10.096492841     0.099044304  0.099044304  0.099044304


 FORCES acting on ions
    electron-ion (+dipol)            ewald-force                    non-local-force                 convergence-correction
 -----------------------------------------------------------------------------------------------
   -.196E+02 -.243E+02 0.196E+02   0.202E+02 0.251E+02 -.202E+02   -.647E+00 -.740E+00 0.647E+00   -.360E-03 -.513E-02 0.360E-03
   0.243E+02 0.196E+02 0.196E+02   -.251E+02 -.202E+02 -.202E+02   0.740E+00 0.647E+00 0.647E+00   0.513E-02 0.360E-03 0.360E-03
   -.196E+02 0.196E+02 -.243E+02   0.202E+02 -.202E+02 0.251E+02   -.647E+00 0.647E+00 -.740E+00   -.360E-03 0.360E-03 -.513E-02
   0.316E+02 -.316E+02 -.316E+02   -.325E+02 0.325E+02 0.325E+02   0.952E+00 -.952E+00 -.952E+00   -.228E-01 0.228E-01 0.228E-01
   0.234E+01 -.194E+01 0.408E+01   -.237E+01 0.168E+01 -.426E+01   0.360E-01 0.262E+00 0.189E+00   0.736E-03 -.706E-03 0.735E-03
   0.489E+01 0.205E+01 0.205E+01   -.428E+01 -.173E+01 -.173E+01   -.622E+00 -.314E+00 -.314E+00   -.115E-02 0.854E-03 0.854E-03
   -.705E+00 0.271E+01 0.271E+01   0.864E+00 -.268E+01 -.268E+01   -.147E+00 -.326E-01 -.326E-01   -.899E-03 0.836E-03 0.836E-03
   -.614E+00 -.267E+01 -.720E+00   0.531E+00 0.279E+01 0.195E+00   0.682E-01 -.119E+00 0.538E+00   0.218E-03 -.931E-04 0.544E-03
   0.170E+01 0.127E+01 0.127E+01   -.221E+01 -.106E+01 -.106E+01   0.506E+00 -.209E+00 -.209E+00   0.177E-02 0.320E-04 0.320E-04
   -.614E+00 -.720E+00 -.267E+01   0.531E+00 0.195E+00 0.279E+01   0.682E-01 0.538E+00 -.119E+00   0.218E-03 0.544E-03 -.931E-04
   0.234E+01 0.408E+01 -.194E+01   -.237E+01 -.426E+01 0.168E+01   0.360E-01 0.189E+00 0.262E+00   0.736E-03 0.735E-03 -.706E-03
   -.410E+01 -.145E+01 -.145E+01   0.334E+01 0.157E+01 0.157E+01   0.757E+00 -.124E+00 -.124E+00   0.127E-02 0.167E-02 0.167E-02
   -.127E+01 -.170E+01 0.127E+01   0.106E+01 0.221E+01 -.106E+01   0.209E+00 -.506E+00 -.209E+00   -.320E-04 -.177E-02 0.320E-04
   0.720E+00 0.614E+00 -.267E+01   -.195E+00 -.531E+00 0.279E+01   -.538E+00 -.682E-01 -.119E+00   -.544E-03 -.218E-03 -.931E-04
   0.194E+01 -.234E+01 0.408E+01   -.168E+01 0.237E+01 -.426E+01   -.262E+00 -.360E-01 0.189E+00   0.706E-03 -.736E-03 0.735E-03
   -.205E+01 -.489E+01 0.205E+01   0.173E+01 0.428E+01 -.173E+01   0.314E+00 0.622E+00 -.314E+00   -.854E-03 0.115E-02 0.854E-03
   -.408E+01 -.234E+01 -.194E+01   0.426E+01 0.237E+01 0.168E+01   -.189E+00 -.360E-01 0.262E+00   -.735E-03 -.736E-03 -.706E-03
   0.145E+01 0.410E+01 -.145E+01   -.157E+01 -.334E+01 0.157E+01   0.124E+00 -.757E+00 -.124E+00   -.167E-02 -.127E-02 0.167E-02
   -.271E+01 0.705E+00 0.271E+01   0.268E+01 -.864E+00 -.268E+01   0.326E-01 0.147E+00 -.326E-01   -.836E-03 0.899E-03 0.836E-03
   0.267E+01 0.614E+00 -.720E+00   -.279E+01 -.531E+00 0.195E+00   0.119E+00 -.682E-01 0.538E+00   0.931E-04 -.218E-03 0.544E-03
   -.271E+01 0.271E+01 0.705E+00   0.268E+01 -.268E+01 -.864E+00   0.326E-01 -.326E-01 0.147E+00   -.836E-03 0.836E-03 0.899E-03
   0.267E+01 -.720E+00 0.614E+00   -.279E+01 0.195E+00 -.531E+00   0.119E+00 0.538E+00 -.682E-01   0.931E-04 0.544E-03 -.218E-03
   0.194E+01 0.408E+01 -.234E+01   -.168E+01 -.426E+01 0.237E+01   -.262E+00 0.189E+00 -.360E-01   0.706E-03 0.735E-03 -.736E-03
   -.205E+01 0.205E+01 -.489E+01   0.173E+01 -.173E+01 0.428E+01   0.314E+00 -.314E+00 0.622E+00   -.854E-03 0.854E-03 0.115E-02
   -.408E+01 -.194E+01 -.234E+01   0.426E+01 0.168E+01 0.237E+01   -.189E+00 0.262E+00 -.360E-01   -.735E-03 -.706E-03 -.736E-03
   0.145E+01 -.145E+01 0.410E+01   -.157E+01 0.157E+01 -.334E+01   0.124E+00 -.124E+00 -.757E+00   -.167E-02 0.167E-02 -.127E-02
   -.127E+01 0.127E+01 -.170E+01   0.106E+01 -.106E+01 0.221E+01   0.209E+00 -.209E+00 -.506E+00   -.320E-04 0.320E-04 -.177E-02
   0.720E+00 -.267E+01 0.614E+00   -.195E+00 0.279E+01 -.531E+00   -.538E+00 -.119E+00 -.682E-01   -.544E-03 -.931E-04 -.218E-03
   0.140E+02 -.140E+02 -.140E+02   -.134E+02 0.134E+02 0.134E+02   -.594E+00 0.594E+00 0.594E+00   0.246E-01 -.246E-01 -.246E-01
   0.194E+01 0.335E+01 0.335E+01   -.129E+01 -.279E+01 -.279E+01   -.648E+00 -.561E+00 -.561E+00   0.204E-01 -.106E-01 -.106E-01
   -.335E+01 -.194E+01 0.335E+01   0.279E+01 0.129E+01 -.279E+01   0.561E+00 0.648E+00 -.561E+00   0.106E-01 -.204E-01 -.106E-01
   -.335E+01 0.335E+01 -.194E+01   0.279E+01 -.279E+01 0.129E+01   0.561E+00 -.561E+00 0.648E+00   0.106E-01 -.106E-01 -.204E-01
   -.420E+02 -.671E+02 -.671E+02   0.435E+02 0.690E+02 0.690E+02   -.144E+01 -.196E+01 -.196E+01   -.707E-02 -.205E-01 -.205E-01
   -.746E+02 -.430E+02 -.430E+02   0.776E+02 0.440E+02 0.440E+02   -.291E+01 -.951E+00 -.951E+00   -.379E-01 -.791E-02 -.791E-02
   -.522E+02 -.605E+02 -.537E+02   0.541E+02 0.628E+02 0.556E+02   -.181E+01 -.229E+01 -.184E+01   -.542E-02 0.161E-01 0.245E-01
   -.522E+02 -.537E+02 -.605E+02   0.541E+02 0.556E+02 0.628E+02   -.181E+01 -.184E+01 -.229E+01   -.542E-02 0.245E-01 0.161E-01
   0.671E+02 0.420E+02 -.671E+02   -.690E+02 -.435E+02 0.690E+02   0.196E+01 0.144E+01 -.196E+01   0.205E-01 0.707E-02 -.205E-01
   0.605E+02 0.522E+02 -.537E+02   -.628E+02 -.541E+02 0.556E+02   0.229E+01 0.181E+01 -.184E+01   -.161E-01 0.542E-02 0.245E-01
   0.430E+02 0.746E+02 -.430E+02   -.440E+02 -.776E+02 0.440E+02   0.951E+00 0.291E+01 -.951E+00   0.791E-02 0.379E-01 -.791E-02
   0.537E+02 0.522E+02 -.605E+02   -.556E+02 -.541E+02 0.628E+02   0.184E+01 0.181E+01 -.229E+01   -.245E-01 0.542E-02 0.161E-01
   0.671E+02 -.671E+02 0.420E+02   -.690E+02 0.690E+02 -.435E+02   0.196E+01 -.196E+01 0.144E+01   0.205E-01 -.205E-01 0.707E-02
   0.605E+02 -.537E+02 0.522E+02   -.628E+02 0.556E+02 -.541E+02   0.229E+01 -.184E+01 0.181E+01   -.161E-01 0.245E-01 0.542E-02
   0.537E+02 -.605E+02 0.522E+02   -.556E+02 0.628E+02 -.541E+02   0.184E+01 -.229E+01 0.181E+01   -.245E-01 0.161E-01 0.542E-02
   0.430E+02 -.430E+02 0.746E+02   -.440E+02 0.440E+02 -.776E+02   0.951E+00 -.951E+00 0.291E+01   0.791E-02 -.791E-02 0.379E-01
   -.590E+02 0.590E+02 0.590E+02   0.610E+02 -.610E+02 -.610E+02   -.196E+01 0.196E+01 0.196E+01   -.198E-01 0.198E-01 0.198E-01
   -.631E+02 0.509E+02 0.509E+02   0.654E+02 -.525E+02 -.525E+02   -.231E+01 0.161E+01 0.161E+01   0.603E-02 -.610E-02 -.610E-02
   -.509E+02 0.631E+02 0.509E+02   0.525E+02 -.654E+02 -.525E+02   -.161E+01 0.231E+01 0.161E+01   0.610E-02 -.603E-02 -.610E-02
   -.509E+02 0.509E+02 0.631E+02   0.525E+02 -.525E+02 -.654E+02   -.161E+01 0.161E+01 0.231E+01   0.610E-02 -.610E-02 -.603E-02
   -.959E+01 0.959E+01 0.959E+01   0.955E+01 -.955E+01 -.955E+01   0.395E-01 -.395E-01 -.395E-01   -.618E-02 0.618E-02 0.618E-02
   0.838E+01 -.838E+01 0.345E+02   -.835E+01 0.835E+01 -.346E+02   -.506E-01 0.506E-01 0.860E-01   0.844E-02 -.844E-02 -.301E-01
   0.838E+01 0.345E+02 -.838E+01   -.835E+01 -.346E+02 0.835E+01   -.506E-01 0.860E-01 0.506E-01   0.844E-02 -.301E-01 -.844E-02
   -.345E+02 -.838E+01 -.838E+01   0.346E+02 0.835E+01 0.835E+01   -.860E-01 0.506E-01 0.506E-01   0.301E-01 -.844E-02 -.844E-02
 -----------------------------------------------------------------------------------------------
   0.860E+00 -.860E+00 -.860E+00   -.121E-12 0.107E-13 -.124E-12   -.941E+00 0.941E+00 0.941E+00   0.190E-02 -.190E-02 -.190E-02
 
 
 POSITION                                       TOTAL-FORCE (eV/Angst)
 -----------------------------------------------------------------------------------
      2.38549      2.41708      7.71266         0.003519      0.001238     -0.003519
      7.68107      7.71266      7.71266        -0.001238     -0.003519     -0.003519
      2.38549      7.71266      2.41708         0.003519     -0.003519      0.001238
      5.35912      4.73903      4.73903         0.018470     -0.018470     -0.018470
      0.14632      1.83614      7.13216         0.008929      0.000224      0.007494
      4.99767      3.12615      3.12615        -0.014125      0.004559      0.004559
     10.04970      7.54247      7.54247         0.011337      0.005537      0.005537
      5.37931      8.49235      1.47112        -0.012865     -0.010029      0.013083
      9.61131      2.69233      2.69233        -0.003890      0.001857      0.001857
      5.37931      1.47112      8.49235        -0.012865      0.013083     -0.010029
      0.14632      7.13216      1.83614         0.008929      0.007494      0.000224
      5.23342      8.25748      8.25748         0.005407      0.003243      0.003243
      7.40582      0.48684      2.69233        -0.001857      0.003890      0.001857
      8.62703      4.71884      8.49235        -0.013083      0.012865     -0.010029
      8.26202      9.95183      7.13216        -0.000224     -0.008929      0.007494
      6.97200      5.10048      3.12615        -0.004559      0.014125      0.004559
      2.96599      9.95183      1.83614        -0.007494     -0.008929      0.000224
      1.84068      4.86473      8.25748        -0.003243     -0.005407      0.003243
      2.55568      0.04845      7.54247        -0.005537     -0.011337      0.005537
      1.60580      4.71884      1.47112         0.010029      0.012865      0.013083
      2.55568      7.54247      0.04845        -0.005537      0.005537     -0.011337
      1.60580      1.47112      4.71884         0.010029      0.013083      0.012865
      8.26202      7.13216      9.95183        -0.000224      0.007494     -0.008929
      6.97200      3.12615      5.10048        -0.004559      0.004559      0.014125
      2.96599      1.83614      9.95183        -0.007494      0.000224     -0.008929
      1.84068      8.25748      4.86473        -0.003243      0.003243     -0.005407
      7.40582      2.69233      0.48684        -0.001857      0.001857      0.003890
      8.62703      8.49235      4.71884        -0.013083     -0.010029      0.012865
     -0.15557      0.15557      0.15557        -0.005892      0.005892      0.005892
      0.13346      5.03300      5.03300         0.025909     -0.008155     -0.008155
      5.06349     -0.13180      5.03466         0.008155     -0.025909     -0.008155
      5.06349      5.03466     -0.13180         0.008155     -0.008155     -0.025909
      1.02800      1.35286      1.35286        -0.006950     -0.005100     -0.005100
      1.41354      6.15244      6.15244         0.018763      0.011096      0.011096
      6.23792      1.03353      6.26106         0.017206     -0.004346      0.012486
      6.23792      6.26106      1.03353         0.017206      0.012486     -0.004346
      8.74529      9.07015      1.35286         0.005100      0.006950     -0.005100
      9.06462      3.86023      6.26106         0.004346     -0.017206      0.012486
      3.94571      8.68461      6.15244        -0.011096     -0.018763      0.011096
      3.83709      3.86023      1.03353        -0.012486     -0.017206     -0.004346
      8.74529      1.35286      9.07015         0.005100     -0.005100      0.006950
      9.06462      6.26106      3.86023         0.004346      0.012486     -0.017206
      3.83709      1.03353      3.86023        -0.012486     -0.004346     -0.017206
      3.94571      6.15244      8.68461        -0.011096      0.011096     -0.018763
      1.01113      9.08702      9.08702        -0.008068      0.008068      0.008068
      1.25029      3.80251      3.80251         0.005616     -0.002790     -0.002790
      6.29564      8.84786      3.80251         0.002790     -0.005616     -0.002790
      6.29564      3.80251      8.84786         0.002790     -0.002790     -0.005616
      7.36332      2.73483      2.73483        -0.000170      0.000170      0.000170
      0.17098     -0.17098      5.69129        -0.008049      0.008049      0.004332
      0.17098      5.69129     -0.17098        -0.008049      0.004332      0.008049
      4.40520     -0.16932     -0.16932        -0.004332      0.008049      0.008049
 -----------------------------------------------------------------------------------
    total drift:                               -0.079439      0.079437      0.079438


--------------------------------------------------------------------------------------------------------



  FREE ENERGIE OF THE ION-ELECTRON SYSTEM (eV)
  ---------------------------------------------------
  free  energy   TOTEN  =      -214.29863520 eV

  energy  without entropy=     -214.29863520  energy(sigma->0) =     -214.29863520
 
 d Force = 0.1019375E-02[ 0.790E-03, 0.125E-02]  d Energy = 0.1442218E-02-0.423E-03
 d Force = 0.5730999E+00[ 0.571E+00, 0.575E+00]  d Ewald  =-0.6780788E-01 0.641E+00


--------------------------------------------------------------------------------------------------------


    POTLOK:  cpu time    0.0570: real time    0.0565


--------------------------------------------------------------------------------------------------------


 Conjugate gradient step on ions:
 trial-energy change:   -0.001442  1 .order   -0.001451   -0.001523   -0.001380
  (g-gl).g = 0.172E-02      g.g   = 0.189E-02  gl.gl    = 0.304E-02
 g(Force)  = 0.144E-02   g(Stress)= 0.448E-03 ortho     = 0.377E-03
 gamma     =   0.56467
 trial     =   0.72351
 opt step  =   2.89406  (harmonic =   7.69506) maximal distance =0.00666577
 next E    =  -214.305291   (d E  =  -0.00810)


--------------------------------------------------------------------------------------------------------


  
 reached required accuracy - stopping structural energy minimisation
     LOOP+:  cpu time    2.2167: real time    2.2453
    4ORBIT:  cpu time    0.0000: real time    0.0000
 


 total charge     
 
# of ion     s       p       d       tot
----------------------------------------
  1        1.588   3.577   0.000   5.166
  2        1.588   3.577   0.000   5.166
  3        1.588   3.577   0.000   5.166
  4        1.591   3.573   0.000   5.164
  5        0.086   0.156   0.000   0.243
  6        0.087   0.162   0.000   0.249
  7        0.077   0.140   0.000   0.218
  8        0.082   0.136   0.000   0.219
  9        0.105   0.183   0.000   0.288
 10        0.082   0.136   0.000   0.219
 11        0.086   0.156   0.000   0.243
 12        0.072   0.127   0.000   0.199
 13        0.105   0.183   0.000   0.288
 14        0.082   0.136   0.000   0.219
 15        0.086   0.156   0.000   0.243
 16        0.087   0.162   0.000   0.249
 17        0.086   0.156   0.000   0.243
 18        0.072   0.127   0.000   0.199
 19        0.077   0.140   0.000   0.218
 20        0.082   0.136   0.000   0.219
 21        0.077   0.140   0.000   0.218
 22        0.082   0.136   0.000   0.219
 23        0.086   0.156   0.000   0.243
 24        0.087   0.162   0.000   0.249
 25        0.086   0.156   0.000   0.243
 26        0.072   0.127   0.000   0.199
 27        0.105   0.183   0.000   0.288
 28        0.082   0.136   0.000   0.219
 29        0.965   1.377   0.000   2.342
 30        0.966   1.373   0.000   2.338
 31        0.966   1.373   0.000   2.338
 32        0.966   1.373   0.000   2.338
 33        1.332   2.442   0.000   3.774
 34        1.336   2.444   0.000   3.780
 35        1.328   2.451   0.000   3.779
 36        1.328   2.451   0.000   3.779
 37        1.332   2.442   0.000   3.774
 38        1.328   2.451   0.000   3.779
 39        1.336   2.444   0.000   3.780
 40        1.328   2.451   0.000   3.779
 41        1.332   2.442   0.000   3.774
 42        1.328   2.451   0.000   3.779
 43        1.328   2.451   0.000   3.779
 44        1.336   2.444   0.000   3.780
 45        1.330   2.474   0.000   3.804
 46        1.332   2.443   0.000   3.775
 47        1.332   2.443   0.000   3.775
 48        1.332   2.443   0.000   3.775
 49        1.305   2.519   0.000   3.824
 50        1.307   2.446   0.000   3.753
 51        1.307   2.446   0.000   3.753
 52        1.307   2.446   0.000   3.753
------------------------------------------------
tot       38.779  72.419   0.000 111.198
 

 total amount of memory used by VASP on root node    43996. kBytes
========================================================================

   base      :      30000. kBytes
   nonlr-proj:       1785. kBytes
   fftplans  :       3473. kBytes
   grid      :       6347. kBytes
   one-center:         39. kBytes
   wavefun   :       2352. kBytes
 
  
  
 General timing and accounting informations for this job:
 ========================================================
  
                  Total CPU time used (sec):      531.438
                            User time (sec):      527.118
                          System time (sec):        4.320
                         Elapsed time (sec):      538.889
  
                   Maximum memory used (kb):       75640.
                   Average memory used (kb):           0.
  
                          Minor page faults:        15782
                          Major page faults:            0
                 Voluntary context switches:        14925
